/*--------------------------------*- C++ -*----------------------------------*\
| =========                 |                                                 |
| \\      /  F ield         | OpenFOAM: The Open Source CFD Toolbox           |
|  \\    /   O peration     | Version:  2312                                  |
|   \\  /    A nd           | Website:  www.openfoam.com                      |
|    \\/     M anipulation  |                                                 |
\*---------------------------------------------------------------------------*/
FoamFile
{
    version     2.0;
    format      ascii;
    arch        "LSB;label=32;scalar=64";
    class       volScalarField;
    location    "0.015";
    object      T;
}
// * * * * * * * * * * * * * * * * * * * * * * * * * * * * * * * * * * * * * //

dimensions      [0 0 0 1 0 0 0];

internalField   nonuniform List<scalar> 
195600
(
1.02928
1.07134
1.09501
1.10699
1.11236
1.11398
1.11338
1.11136
1.1084
1.10483
1.10084
1.09655
1.09202
1.08725
1.08216
1.07652
1.06951
1.05811
1.05153
1.05208
1.05159
1.05082
1.04981
1.0486
1.04728
1.04589
1.04448
1.0431
1.04181
1.04068
1.03978
1.03922
1.0391
1.03943
1.03981
1.03813
1.03383
1.02568
1.01384
1.00039
0.986217
0.971651
0.956809
0.941709
0.926346
0.910709
0.894787
0.878568
0.862044
0.845204
0.82804
0.810546
0.792703
0.774374
0.755733
0.736302
0.716359
0.696088
0.67547
0.654471
0.633054
0.61118
0.58882
0.565953
0.54258
0.518726
0.49447
0.469987
0.445615
0.421912
0.399484
0.377081
1.02673
1.06916
1.09361
1.10617
1.11192
1.11377
1.1133
1.11135
1.10844
1.1049
1.10093
1.09665
1.09213
1.08737
1.0823
1.0767
1.06988
1.06025
1.0545
1.05383
1.05287
1.05175
1.0505
1.04914
1.0477
1.04623
1.04477
1.04335
1.04203
1.04088
1.03996
1.03939
1.03927
1.03964
1.04018
1.03941
1.03517
1.02619
1.01401
1.00046
0.986263
0.971691
0.956833
0.941713
0.926327
0.910665
0.894718
0.878476
0.861928
0.845065
0.82788
0.810367
0.792517
0.774338
0.75555
0.736009
0.716084
0.69583
0.675216
0.654205
0.632764
0.61086
0.588466
0.565564
0.542151
0.51825
0.493937
0.469378
0.444905
0.421113
0.398911
0.379311
1.02939
1.07184
1.09519
1.10703
1.11243
1.11411
1.11355
1.11156
1.10863
1.10508
1.1011
1.09682
1.0923
1.08754
1.08249
1.07694
1.07036
1.06203
1.05604
1.05428
1.05315
1.05201
1.05077
1.0494
1.04795
1.04646
1.04498
1.04355
1.04223
1.04107
1.04015
1.03958
1.03947
1.03992
1.04076
1.04085
1.03644
1.02659
1.01398
1.00024
0.985973
0.971362
0.956471
0.941318
0.925899
0.910206
0.894226
0.877952
0.861371
0.844476
0.827258
0.809713
0.791843
0.773697
0.754774
0.73517
0.715238
0.694971
0.67434
0.653303
0.631828
0.609882
0.587441
0.564485
0.54101
0.517032
0.492618
0.467918
0.443248
0.419237
0.397144
0.379898
1.03382
1.07598
1.09753
1.10824
1.11306
1.11446
1.11375
1.11167
1.10869
1.10511
1.10112
1.09683
1.0923
1.08756
1.08253
1.07704
1.07072
1.06331
1.05711
1.05461
1.05332
1.05217
1.05092
1.04954
1.04807
1.04657
1.04507
1.04363
1.04229
1.04113
1.0402
1.03963
1.03954
1.0401
1.04133
1.04246
1.03792
1.02688
1.01363
0.999627
0.985247
0.970575
0.95564
0.940446
0.924987
0.909252
0.893232
0.876916
0.860292
0.843353
0.826091
0.808501
0.790592
0.772414
0.753382
0.733727
0.713765
0.693469
0.672803
0.651726
0.630202
0.6082
0.585694
0.562664
0.539101
0.515016
0.490458
0.46555
0.440574
0.416147
0.393729
0.37726
1.04066
1.08167
1.1006
1.10977
1.11381
1.11479
1.11385
1.11165
1.10859
1.10496
1.10093
1.09662
1.09209
1.08735
1.08234
1.07694
1.07088
1.06414
1.05771
1.05478
1.05337
1.0522
1.05093
1.04952
1.04802
1.04649
1.04498
1.04352
1.04217
1.04099
1.04006
1.03949
1.03942
1.04009
1.04182
1.04436
1.03971
1.02699
1.01289
0.99855
0.984023
0.969268
0.954271
0.939022
0.923511
0.907725
0.891654
0.875285
0.858609
0.841616
0.824298
0.806651
0.788685
0.770445
0.751354
0.731645
0.711622
0.69127
0.670549
0.649411
0.627818
0.605739
0.583149
0.560025
0.536351
0.512129
0.487385
0.462206
0.436809
0.411726
0.388351
0.370764
1.05093
1.08898
1.10431
1.11155
1.11459
1.11503
1.11379
1.1114
1.10822
1.10452
1.10045
1.09611
1.09157
1.08683
1.08185
1.07654
1.07074
1.0645
1.05785
1.05472
1.05326
1.05206
1.05075
1.04929
1.04774
1.04617
1.04463
1.04315
1.04178
1.04059
1.03965
1.03907
1.03901
1.0398
1.04208
1.04672
1.042
1.02677
1.01165
0.996941
0.98224
0.967379
0.952301
0.936983
0.921407
0.905559
0.889426
0.872995
0.856257
0.839199
0.821815
0.8041
0.786061
0.767748
0.748677
0.728889
0.708766
0.68833
0.667531
0.64631
0.624627
0.602453
0.579758
0.556518
0.532711
0.508323
0.483356
0.457848
0.431921
0.405933
0.380903
0.360296
1.0663
1.09781
1.10852
1.11351
1.11537
1.11515
1.11354
1.11091
1.10758
1.10379
1.09966
1.09529
1.09072
1.08598
1.08104
1.07584
1.07027
1.06447
1.05752
1.05442
1.05298
1.05175
1.05037
1.04884
1.04724
1.04562
1.04404
1.04254
1.04116
1.03995
1.039
1.0384
1.03835
1.03922
1.04203
1.04987
1.04504
1.02601
1.00986
0.994771
0.979873
0.964887
0.949719
0.934325
0.918678
0.902762
0.88656
0.870061
0.853252
0.836123
0.818663
0.800867
0.782738
0.764314
0.745244
0.725425
0.705259
0.684737
0.663821
0.642477
0.620671
0.598371
0.575546
0.552164
0.528197
0.503615
0.47839
0.452501
0.425952
0.398848
0.371518
0.345752
1.08857
1.1065
1.112
1.11486
1.11566
1.11487
1.11295
1.11014
1.10668
1.10282
1.09864
1.09425
1.08968
1.08496
1.08007
1.07496
1.06964
1.06423
1.05995
1.05691
1.05454
1.05254
1.05063
1.04877
1.04695
1.0452
1.04353
1.04198
1.04056
1.03933
1.03836
1.03774
1.03767
1.03856
1.04167
1.05448
1.04915
1.02428
1.00753
0.992192
0.97715
0.96207
0.946826
0.931358
0.915636
0.899641
0.883358
0.866776
0.849881
0.832662
0.815109
0.797213
0.77897
0.76037
0.741209
0.721412
0.701223
0.680608
0.659557
0.638065
0.616107
0.593653
0.570667
0.547116
0.522962
0.49816
0.472652
0.446356
0.419139
0.390761
0.360658
0.326736
1.12294
1.1157
1.11597
1.11665
1.11636
1.11495
1.11261
1.10956
1.10599
1.10204
1.09781
1.09338
1.08881
1.08409
1.07925
1.07425
1.06916
1.06434
1.06263
1.05938
1.05604
1.05323
1.0508
1.04863
1.04663
1.04478
1.04305
1.04147
1.04003
1.03879
1.03781
1.03717
1.03707
1.03788
1.04063
1.04791
1.04188
1.02182
1.00524
0.989818
0.974685
0.959522
0.944195
0.928643
0.912833
0.896747
0.880372
0.863695
0.846704
0.829387
0.811732
0.793728
0.775364
0.756608
0.737332
0.717489
0.697214
0.676502
0.655346
0.633736
0.611649
0.589055
0.565922
0.542212
0.517881
0.492872
0.467098
0.440419
0.412577
0.383029
0.350589
0.311828
1.14914
1.126
1.12113
1.11935
1.11771
1.11549
1.11259
1.10921
1.10545
1.10136
1.09704
1.09256
1.08794
1.08323
1.07841
1.0735
1.06861
1.06415
1.0618
1.05863
1.05542
1.05261
1.05015
1.04794
1.04592
1.04405
1.04232
1.04072
1.03928
1.03803
1.03703
1.03635
1.03617
1.03679
1.03882
1.04251
1.03601
1.01891
1.00274
0.987304
0.97209
0.956837
0.941423
0.925785
0.90989
0.89372
0.877263
0.860503
0.843428
0.826025
0.80828
0.790182
0.771711
0.752834
0.733465
0.713574
0.693233
0.672445
0.651205
0.6295
0.607309
0.584602
0.561347
0.537504
0.513024
0.487836
0.461832
0.434827
0.406477
0.376088
0.342263
0.302213
1.16472
1.13521
1.12599
1.12192
1.119
1.11602
1.11268
1.10901
1.10505
1.10083
1.09643
1.0919
1.08727
1.08256
1.07779
1.07299
1.06828
1.06406
1.0613
1.05817
1.05505
1.05226
1.04979
1.04757
1.04553
1.04365
1.04191
1.04032
1.03888
1.03763
1.0366
1.03588
1.03559
1.03596
1.03724
1.0387
1.03185
1.01643
1.0007
0.985308
0.970037
0.954702
0.939202
0.923476
0.907494
0.891236
0.87469
0.85784
0.840673
0.823175
0.805331
0.787128
0.768545
0.749548
0.730077
0.710112
0.68969
0.668814
0.647477
0.625666
0.603359
0.580528
0.55714
0.533154
0.508516
0.483149
0.45693
0.429645
0.400903
0.369945
0.335287
0.294219
1.17873
1.14369
1.13094
1.1248
1.12063
1.1169
1.11308
1.1091
1.10492
1.10056
1.09607
1.09147
1.08681
1.08211
1.07737
1.07265
1.06808
1.064
1.06097
1.05784
1.05477
1.05199
1.0495
1.04725
1.04519
1.04329
1.04153
1.03992
1.03846
1.03718
1.03611
1.03532
1.03489
1.03495
1.03552
1.03574
1.02863
1.01393
0.998564
0.983248
0.967937
0.952527
0.936941
0.921131
0.905066
0.888726
0.872096
0.855161
0.837906
0.820319
0.802384
0.784085
0.7654
0.746299
0.726738
0.706701
0.686204
0.665248
0.643825
0.62192
0.599513
0.576577
0.553078
0.528975
0.504213
0.478711
0.452344
0.424891
0.39596
0.364817
0.330119
0.289698
1.18658
1.15083
1.13534
1.12728
1.12188
1.11735
1.11302
1.10868
1.10426
1.09974
1.09513
1.09047
1.08577
1.08106
1.07635
1.0717
1.06724
1.06324
1.06004
1.05689
1.05386
1.05108
1.04858
1.0463
1.04422
1.04231
1.04054
1.03892
1.03744
1.03613
1.03502
1.03414
1.03356
1.03331
1.0333
1.03326
1.02581
1.01108
0.996098
0.980957
0.96571
0.950313
0.934717
0.918883
0.902784
0.886404
0.869727
0.852739
0.835428
0.81778
0.799779
0.78141
0.76265
0.743471
0.723842
0.703746
0.683188
0.662166
0.64067
0.618687
0.596194
0.573167
0.549571
0.525368
0.500503
0.474899
0.448435
0.420908
0.391961
0.360961
0.326812
0.287786
1.19331
1.1576
1.14011
1.1304
1.12386
1.11856
1.11372
1.10902
1.10435
1.09966
1.09494
1.0902
1.08546
1.08074
1.07606
1.07147
1.0671
1.06316
1.05984
1.05667
1.05366
1.05089
1.04837
1.04609
1.04399
1.04206
1.04028
1.03864
1.03715
1.03581
1.03464
1.03367
1.03291
1.03234
1.03174
1.03015
1.02233
1.00874
0.994116
0.979128
0.963936
0.948545
0.932929
0.917058
0.900912
0.884476
0.867738
0.850684
0.833303
0.81558
0.797501
0.77905
0.760205
0.740942
0.721233
0.701065
0.680435
0.659338
0.637763
0.615695
0.593115
0.569996
0.546307
0.522011
0.497059
0.471381
0.444874
0.417366
0.388572
0.358014
0.324938
0.288338
1.19923
1.16336
1.14448
1.13338
1.12579
1.11975
1.11438
1.10932
1.10439
1.09951
1.09466
1.08984
1.08504
1.0803
1.07562
1.07108
1.06676
1.06285
1.05944
1.05624
1.05322
1.05045
1.04791
1.0456
1.04348
1.04153
1.03973
1.03806
1.03654
1.03516
1.03392
1.03284
1.03189
1.031
1.02985
1.02731
1.01933
1.00625
0.99181
0.976885
0.961688
0.946258
0.930588
0.914658
0.898452
0.881956
0.865158
0.848045
0.830605
0.812823
0.794684
0.776172
0.757267
0.737945
0.718184
0.69797
0.677296
0.656153
0.634531
0.612414
0.589782
0.566611
0.542872
0.51853
0.493544
0.467858
0.441392
0.414026
0.385573
0.355741
0.32421
0.29204
1.19961
1.16724
1.14765
1.13553
1.12711
1.12048
1.11472
1.10939
1.10427
1.09928
1.09436
1.0895
1.0847
1.07998
1.07535
1.07087
1.06664
1.06278
1.05935
1.05616
1.05317
1.05042
1.04791
1.04561
1.0435
1.04156
1.03977
1.03812
1.0366
1.03521
1.03393
1.03277
1.03166
1.0305
1.02896
1.02603
1.0179
1.00483
0.99046
0.975564
0.960349
0.944872
0.929139
0.913141
0.896865
0.8803
0.863433
0.846251
0.828741
0.810889
0.79268
0.774095
0.755117
0.735724
0.715897
0.695619
0.674882
0.653676
0.631988
0.609801
0.587098
0.563854
0.540044
0.515637
0.4906
0.464891
0.438462
0.411251
0.383178
0.354126
0.323835
0.291324
1.20337
1.17113
1.15117
1.13826
1.12913
1.12195
1.1158
1.11019
1.10488
1.09976
1.09475
1.08983
1.08501
1.08028
1.07568
1.07125
1.06706
1.06322
1.05977
1.05657
1.05358
1.05084
1.04832
1.04601
1.0439
1.04195
1.04016
1.0385
1.03696
1.03553
1.0342
1.03293
1.03166
1.03025
1.02843
1.02564
1.01732
1.00374
0.989325
0.974413
0.959154
0.943612
0.927802
0.911723
0.895366
0.878721
0.861776
0.844517
0.826932
0.809006
0.790723
0.772066
0.753017
0.733556
0.713665
0.693329
0.672536
0.651275
0.629531
0.60729
0.584532
0.561235
0.537376
0.512929
0.48787
0.462173
0.435822
0.408815
0.381187
0.353024
0.324354
0.293866
1.20327
1.17356
1.15341
1.13981
1.12998
1.12223
1.11564
1.10971
1.10417
1.09887
1.09373
1.08874
1.08386
1.07911
1.07451
1.0701
1.06594
1.06211
1.05863
1.05541
1.05242
1.04966
1.04713
1.04481
1.04269
1.04073
1.03892
1.03724
1.03568
1.03422
1.03283
1.03148
1.03009
1.02851
1.02657
1.02477
1.01648
1.00194
0.987578
0.972764
0.957577
0.94208
0.926296
0.910231
0.893878
0.87723
0.860275
0.843002
0.825399
0.807451
0.789143
0.770459
0.751382
0.731893
0.711974
0.691612
0.670792
0.649503
0.627729
0.605455
0.582662
0.55933
0.535437
0.510963
0.485889
0.460208
0.433931
0.407112
0.379897
0.352609
0.325968
0.302078
1.20499
1.17645
1.15631
1.1422
1.13178
1.12353
1.11654
1.11031
1.10453
1.09907
1.09382
1.08875
1.08383
1.07906
1.07446
1.07007
1.06594
1.06212
1.05862
1.0554
1.05241
1.04965
1.04712
1.0448
1.04266
1.0407
1.03888
1.03719
1.03562
1.03413
1.03269
1.03127
1.02977
1.02805
1.02589
1.02286
1.01449
1.00105
0.986825
0.972079
0.956936
0.941462
0.925685
0.909613
0.893243
0.876569
0.859582
0.842272
0.824627
0.806634
0.788279
0.769546
0.750419
0.73088
0.710913
0.690503
0.669637
0.648301
0.626479
0.604157
0.581317
0.557938
0.534001
0.509491
0.484394
0.458716
0.432491
0.405816
0.37892
0.352304
0.327087
0.305823
1.20733
1.17912
1.15911
1.14461
1.13368
1.12494
1.11755
1.11099
1.10497
1.09932
1.09393
1.08875
1.08375
1.07894
1.07431
1.06991
1.06577
1.06193
1.05841
1.05515
1.05213
1.04936
1.0468
1.04446
1.0423
1.04031
1.03848
1.03676
1.03516
1.03362
1.03213
1.03062
1.02901
1.02713
1.02473
1.02105
1.01247
0.999368
0.985133
0.970354
0.95518
0.939672
0.923859
0.90775
0.891344
0.874636
0.857617
0.840277
0.822605
0.804587
0.786209
0.767456
0.748311
0.728759
0.708783
0.688368
0.6675
0.646165
0.624348
0.602033
0.579202
0.555838
0.531922
0.507441
0.482388
0.456774
0.430647
0.404127
0.377483
0.351281
0.326772
0.307028
1.20471
1.18001
1.1605
1.14589
1.13467
1.12565
1.11801
1.11126
1.10511
1.09936
1.09392
1.08871
1.08372
1.07893
1.07435
1.06999
1.06591
1.06211
1.05861
1.05539
1.05241
1.04966
1.04714
1.04482
1.04269
1.04073
1.03892
1.03722
1.03563
1.03409
1.03258
1.03103
1.02934
1.02737
1.02488
1.02113
1.01233
0.999021
0.984683
0.969845
0.954624
0.939072
0.923213
0.907059
0.890609
0.873858
0.856799
0.83942
0.821711
0.803657
0.785245
0.76646
0.747285
0.727704
0.707702
0.687263
0.666373
0.645017
0.623181
0.600847
0.577999
0.554619
0.530692
0.506203
0.481148
0.455541
0.429432
0.402942
0.37633
0.350117
0.325313
0.303604
1.20664
1.18193
1.16291
1.14829
1.13686
1.12759
1.11972
1.11279
1.1065
1.10065
1.09513
1.08988
1.08487
1.08007
1.0755
1.07116
1.06709
1.06331
1.05982
1.05659
1.05361
1.05087
1.04835
1.04603
1.0439
1.04194
1.04012
1.03841
1.0368
1.03524
1.03368
1.03206
1.03029
1.02823
1.02573
1.02252
1.01341
0.999287
0.98472
0.969768
0.954458
0.938823
0.922887
0.906657
0.890135
0.873317
0.856194
0.838756
0.820992
0.802887
0.784428
0.765599
0.746385
0.72677
0.706738
0.686274
0.665364
0.643992
0.622143
0.599801
0.576949
0.553569
0.529646
0.505167
0.480124
0.454528
0.428419
0.401895
0.375161
0.348607
0.322927
0.299271
1.20419
1.18181
1.16321
1.14856
1.1369
1.12734
1.1192
1.11204
1.10555
1.09955
1.09392
1.08859
1.08351
1.07868
1.07409
1.06974
1.06567
1.06188
1.05837
1.05513
1.05214
1.04939
1.04686
1.04454
1.0424
1.04044
1.03861
1.03691
1.03529
1.03372
1.03216
1.03053
1.02874
1.02668
1.02433
1.02275
1.01411
0.998646
0.984019
0.969099
0.95383
0.938236
0.922337
0.906141
0.889649
0.872858
0.855759
0.838342
0.820597
0.80251
0.784068
0.765254
0.746056
0.726456
0.70644
0.685992
0.665097
0.643741
0.621907
0.59958
0.576743
0.553378
0.529469
0.505001
0.479964
0.454358
0.428205
0.401562
0.374551
0.347387
0.320389
0.293927
1.20485
1.18277
1.16459
1.14998
1.13816
1.12837
1.12001
1.11265
1.106
1.09987
1.09415
1.08875
1.08363
1.07877
1.07417
1.06984
1.06577
1.06199
1.05849
1.05525
1.05227
1.04953
1.04701
1.0447
1.04258
1.04063
1.03882
1.03713
1.03553
1.03397
1.03241
1.03079
1.02901
1.02697
1.02456
1.02155
1.01325
0.999319
0.98481
0.969909
0.954654
0.939073
0.923183
0.906993
0.890502
0.873707
0.856601
0.839174
0.821416
0.803314
0.784855
0.766025
0.746808
0.727191
0.707158
0.686694
0.665784
0.644413
0.622566
0.600227
0.577378
0.554003
0.530084
0.505603
0.480545
0.454898
0.428657
0.40183
0.374442
0.346523
0.318047
0.28872
1.20634
1.18409
1.16627
1.1517
1.13974
1.12972
1.12111
1.11352
1.10668
1.10038
1.09452
1.08901
1.08381
1.07889
1.07423
1.06986
1.06576
1.06194
1.05841
1.05514
1.05214
1.04937
1.04683
1.0445
1.04237
1.04041
1.03859
1.03689
1.03528
1.03372
1.03216
1.03052
1.02873
1.02667
1.02417
1.02047
1.01179
0.998307
0.983779
0.968817
0.953515
0.937901
0.921987
0.90578
0.889279
0.872479
0.855373
0.837952
0.820204
0.802117
0.783678
0.764873
0.745687
0.726106
0.706114
0.685697
0.664839
0.643527
0.621743
0.599474
0.576701
0.553407
0.529573
0.50518
0.480203
0.454619
0.428393
0.401483
0.373816
0.345257
0.315571
0.284688
1.20304
1.1837
1.16656
1.15226
1.14035
1.13028
1.12159
1.11392
1.10701
1.10067
1.09478
1.08927
1.08407
1.07918
1.07456
1.07022
1.06616
1.06239
1.0589
1.05567
1.0527
1.04998
1.04748
1.04519
1.0431
1.04118
1.0394
1.03775
1.03618
1.03466
1.03313
1.03153
1.02977
1.02777
1.02533
1.02168
1.01262
0.998886
0.984224
0.969182
0.953828
0.938177
0.922236
0.906008
0.889492
0.872683
0.855572
0.83815
0.820406
0.802326
0.783898
0.765107
0.745938
0.726377
0.706409
0.686019
0.665191
0.643911
0.622164
0.599933
0.577202
0.553954
0.530167
0.505819
0.480881
0.455314
0.429059
0.402025
0.374054
0.344861
0.313891
0.279968
1.20462
1.18519
1.16863
1.1546
1.14276
1.13267
1.12391
1.11616
1.10917
1.10277
1.09684
1.09129
1.08608
1.08117
1.07655
1.07222
1.06817
1.0644
1.06091
1.05768
1.05472
1.05199
1.04949
1.04721
1.04511
1.04319
1.04142
1.03977
1.0382
1.03668
1.03515
1.03355
1.03181
1.02983
1.02756
1.02475
1.01516
1.00038
0.985423
0.970234
0.954772
0.939031
0.923013
0.906719
0.890146
0.873287
0.856134
0.838677
0.820905
0.802805
0.784362
0.765563
0.746393
0.726838
0.706881
0.686509
0.665707
0.644458
0.622749
0.600564
0.577885
0.554696
0.530975
0.506696
0.481826
0.456315
0.430085
0.403006
0.37486
0.345268
0.313566
0.278717
1.20072
1.18358
1.16749
1.15366
1.14185
1.13169
1.12282
1.11494
1.10784
1.10133
1.09531
1.08969
1.08442
1.07947
1.07483
1.07047
1.0664
1.06262
1.05912
1.05588
1.05291
1.05018
1.04769
1.04541
1.04332
1.04142
1.03967
1.03805
1.03651
1.03504
1.03356
1.03203
1.03038
1.02853
1.02659
1.02607
1.01744
1.00095
0.985885
0.970712
0.955281
0.939578
0.923605
0.907358
0.890835
0.874028
0.856929
0.839527
0.82181
0.803765
0.785378
0.766637
0.747525
0.728028
0.708132
0.687821
0.667081
0.645897
0.624253
0.602135
0.579526
0.55641
0.532765
0.508565
0.483775
0.458337
0.432163
0.405103
0.376904
0.34714
0.315089
0.279607
1.20115
1.18345
1.16777
1.15418
1.14245
1.13227
1.12334
1.11538
1.1082
1.10162
1.09554
1.08989
1.08459
1.07963
1.07498
1.07063
1.06658
1.06281
1.05933
1.05611
1.05316
1.05046
1.04799
1.04575
1.0437
1.04184
1.04014
1.03857
1.0371
1.0357
1.0343
1.03287
1.03133
1.02962
1.02769
1.02537
1.01758
1.00324
0.988367
0.973209
0.957782
0.942088
0.926125
0.909892
0.893383
0.87659
0.859504
0.842115
0.824411
0.806379
0.788006
0.769277
0.750179
0.730696
0.710815
0.690521
0.669799
0.648635
0.627013
0.604921
0.582342
0.559261
0.535657
0.511508
0.486776
0.461407
0.435311
0.408335
0.380225
0.350565
0.318664
0.283356
1.20218
1.1841
1.16875
1.15533
1.14363
1.13339
1.12435
1.11627
1.10895
1.10225
1.09606
1.0903
1.08492
1.07989
1.07518
1.07078
1.06668
1.06287
1.05935
1.05611
1.05314
1.05042
1.04794
1.04569
1.04365
1.04179
1.04011
1.03857
1.03713
1.03577
1.03443
1.03307
1.03161
1.02999
1.02803
1.02489
1.01649
1.00279
0.987953
0.972755
0.957296
0.941586
0.925622
0.9094
0.892911
0.876148
0.8591
0.841758
0.824107
0.806137
0.787832
0.76918
0.750165
0.730773
0.710989
0.6908
0.67019
0.649145
0.627651
0.605694
0.583261
0.560336
0.536903
0.512941
0.488418
0.463289
0.437471
0.410832
0.383145
0.354055
0.323081
0.289934
1.19896
1.1832
1.16848
1.15543
1.14393
1.1338
1.1248
1.11673
1.10942
1.10272
1.09653
1.09079
1.08543
1.08042
1.07575
1.07138
1.06732
1.06356
1.06008
1.05688
1.05395
1.05128
1.04885
1.04665
1.04467
1.04288
1.04127
1.03981
1.03846
1.03719
1.03596
1.03472
1.0334
1.03194
1.03016
1.02713
1.01818
1.00419
0.989234
0.973978
0.958491
0.942771
0.92681
0.910602
0.894137
0.877405
0.860397
0.843099
0.8255
0.807586
0.789344
0.770758
0.751815
0.732498
0.712795
0.692689
0.672166
0.651213
0.629815
0.607958
0.585631
0.562821
0.539513
0.515693
0.491337
0.466413
0.44086
0.414575
0.38738
0.358985
0.328967
0.296752
1.20041
1.18489
1.17071
1.15799
1.1467
1.13667
1.12771
1.11964
1.11232
1.1056
1.09939
1.09363
1.08826
1.08324
1.07855
1.07418
1.07012
1.06635
1.06286
1.05966
1.05673
1.05405
1.05163
1.04943
1.04746
1.04568
1.04409
1.04265
1.04133
1.04011
1.03894
1.03777
1.03654
1.03522
1.03377
1.03189
1.02214
1.00685
0.991542
0.976138
0.960551
0.944753
0.928731
0.912475
0.895975
0.87922
0.862198
0.844898
0.827306
0.809408
0.791191
0.772639
0.753738
0.734472
0.714828
0.694789
0.674341
0.653471
0.632164
0.610408
0.588191
0.565503
0.542334
0.518674
0.494514
0.469837
0.444614
0.418788
0.392246
0.364778
0.33609
0.306497
1.19507
1.18222
1.16842
1.15597
1.14482
1.13485
1.1259
1.11781
1.11043
1.10366
1.09741
1.0916
1.08618
1.08113
1.07642
1.07203
1.06795
1.06417
1.06068
1.05747
1.05454
1.05187
1.04946
1.04729
1.04534
1.04361
1.04207
1.04069
1.03946
1.03833
1.03728
1.03626
1.03522
1.03413
1.03319
1.03441
1.02617
1.00866
0.993212
0.97783
0.962282
0.946533
0.930568
0.914376
0.897946
0.881267
0.864327
0.847113
0.82961
0.811805
0.793683
0.77523
0.75643
0.737268
0.717729
0.697799
0.677462
0.656704
0.635513
0.613876
0.591783
0.569225
0.546198
0.5227
0.498733
0.474304
0.449421
0.424087
0.398277
0.371858
0.344342
0.314115
1.19567
1.18124
1.16785
1.15569
1.14474
1.13488
1.12599
1.11792
1.11055
1.10378
1.09752
1.09171
1.0863
1.08126
1.07656
1.07219
1.06813
1.06438
1.06093
1.05776
1.05487
1.05225
1.04989
1.04778
1.0459
1.04425
1.04279
1.04152
1.0404
1.03941
1.03851
1.03767
1.03684
1.03599
1.03508
1.03399
1.02713
1.01258
0.997447
0.982106
0.96657
0.950833
0.934885
0.918716
0.902313
0.885665
0.868758
0.851579
0.834114
0.816349
0.798269
0.779859
0.761104
0.741989
0.722499
0.702619
0.682334
0.661631
0.640497
0.61892
0.596891
0.574406
0.551461
0.528065
0.504232
0.479994
0.455399
0.430524
0.405469
0.380306
0.354764
0.326333
1.19621
1.18143
1.16831
1.15636
1.14552
1.1357
1.12678
1.11866
1.11122
1.10437
1.09803
1.09215
1.08667
1.08156
1.0768
1.07238
1.06828
1.06449
1.061
1.05781
1.0549
1.05227
1.04992
1.04781
1.04596
1.04434
1.04293
1.04172
1.04068
1.03979
1.03901
1.03832
1.03766
1.03697
1.03605
1.03394
1.02621
1.01255
0.997559
0.982224
0.966692
0.950973
0.935059
0.918938
0.902596
0.88602
0.869196
0.85211
0.834749
0.817097
0.799139
0.78086
0.762245
0.743279
0.723946
0.704231
0.684119
0.663595
0.642648
0.621266
0.59944
0.577165
0.554444
0.53129
0.507728
0.48381
0.459625
0.435322
0.41115
0.387549
0.365472
0.348194
1.19354
1.1803
1.16775
1.15618
1.1456
1.13597
1.12718
1.11914
1.11175
1.10494
1.09864
1.09278
1.08733
1.08226
1.07754
1.07315
1.06909
1.06534
1.06189
1.05875
1.05589
1.05332
1.05102
1.049
1.04722
1.04569
1.04439
1.0433
1.0424
1.04166
1.04107
1.04058
1.04015
1.03973
1.0391
1.03714
1.02867
1.01468
0.999589
0.984233
0.968713
0.953027
0.937161
0.9211
0.904829
0.888334
0.871601
0.854614
0.837359
0.819819
0.801981
0.783828
0.765343
0.746513
0.727319
0.707748
0.687783
0.667409
0.646613
0.625384
0.603712
0.581593
0.559031
0.536041
0.512659
0.48895
0.465031
0.441108
0.417538
0.394972
0.374668
0.359069
1.19474
1.18243
1.17038
1.15915
1.14882
1.13934
1.13065
1.12267
1.11532
1.10852
1.10221
1.09635
1.09089
1.0858
1.08106
1.07666
1.07258
1.06882
1.06536
1.06221
1.05934
1.05677
1.05447
1.05245
1.05069
1.04919
1.04793
1.04689
1.04606
1.04542
1.04493
1.04458
1.04433
1.04416
1.04404
1.04359
1.03405
1.01843
1.00292
0.987419
0.971822
0.956085
0.940186
0.924108
0.907836
0.891352
0.874643
0.857693
0.840486
0.823006
0.805238
0.787166
0.768773
0.750043
0.73096
0.711507
0.691668
0.671427
0.650771
0.629686
0.608162
0.586194
0.563784
0.540947
0.517719
0.494169
0.470423
0.446705
0.423401
0.401197
0.38132
0.366096
1.18782
1.17881
1.16705
1.15609
1.14596
1.13661
1.12801
1.12007
1.11273
1.10594
1.09962
1.09374
1.08827
1.08317
1.07842
1.07401
1.06992
1.06616
1.0627
1.05955
1.0567
1.05415
1.05188
1.0499
1.04819
1.04675
1.04557
1.04464
1.04393
1.04344
1.04314
1.04301
1.04302
1.04318
1.04379
1.04747
1.04
1.02149
1.00578
0.990315
0.974775
0.959103
0.943279
0.927286
0.911107
0.894726
0.878127
0.861294
0.84421
0.826861
0.809228
0.791296
0.773048
0.754468
0.735538
0.716242
0.696562
0.676483
0.655988
0.635063
0.613697
0.59188
0.569613
0.546905
0.523785
0.500315
0.476609
0.452869
0.429443
0.406907
0.386144
0.368194
1.18889
1.17709
1.16571
1.15507
1.14519
1.13604
1.12757
1.11974
1.11248
1.10574
1.09947
1.09364
1.0882
1.08314
1.07843
1.07406
1.07002
1.0663
1.0629
1.0598
1.05702
1.05453
1.05234
1.05045
1.04884
1.04751
1.04646
1.04567
1.04513
1.04483
1.04476
1.04488
1.04519
1.04566
1.0463
1.04696
1.04144
1.02694
1.01173
0.996351
0.980838
0.965191
0.949396
0.93344
0.917304
0.900973
0.884428
0.867655
0.850635
0.833354
0.815793
0.797937
0.779768
0.76127
0.742425
0.723216
0.703626
0.683638
0.663234
0.642398
0.621115
0.599375
0.577169
0.554499
0.531382
0.507858
0.484009
0.459982
0.436033
0.412575
0.390216
0.369545
1.1886
1.17686
1.1657
1.15527
1.14553
1.13646
1.12803
1.1202
1.11292
1.10615
1.09984
1.09395
1.08846
1.08335
1.07859
1.07418
1.0701
1.06635
1.06292
1.05981
1.05701
1.05453
1.05236
1.05049
1.04892
1.04765
1.04667
1.04598
1.04556
1.04541
1.04551
1.04585
1.04641
1.04712
1.04774
1.0471
1.04046
1.02715
1.01221
0.996887
0.981421
0.965837
0.950122
0.934262
0.918236
0.902028
0.885619
0.868993
0.852133
0.835021
0.817642
0.799977
0.782009
0.763722
0.745097
0.726116
0.706761
0.687014
0.666855
0.646267
0.62523
0.603728
0.581746
0.559272
0.536303
0.512849
0.488943
0.464652
0.440101
0.415511
0.391324
0.368792
1.18697
1.17561
1.165
1.15494
1.14548
1.13663
1.12836
1.12064
1.11345
1.10674
1.10048
1.09464
1.08919
1.08412
1.07939
1.07502
1.07098
1.06727
1.06389
1.06083
1.05809
1.05567
1.05358
1.0518
1.05033
1.04918
1.04834
1.04781
1.04757
1.04764
1.04799
1.04861
1.04949
1.05057
1.05159
1.05115
1.04358
1.02988
1.01484
0.999529
0.984121
0.96862
0.953008
0.937263
0.921366
0.905296
0.889037
0.872568
0.855874
0.838936
0.821738
0.804261
0.786487
0.768399
0.749978
0.731205
0.712061
0.692525
0.672577
0.652195
0.631357
0.61004
0.588218
0.565868
0.542962
0.519475
0.495381
0.470656
0.44527
0.41918
0.392283
0.364098
1.18745
1.17814
1.16808
1.15837
1.14915
1.14047
1.13232
1.12469
1.11755
1.11087
1.10462
1.09878
1.09332
1.08823
1.08349
1.07909
1.07503
1.0713
1.0679
1.06482
1.06207
1.05965
1.05755
1.05578
1.05434
1.05323
1.05245
1.052
1.05187
1.05206
1.05257
1.0534
1.05454
1.05598
1.05774
1.05926
1.05039
1.03465
1.01904
1.00357
0.988106
0.972591
0.956986
0.941268
0.925412
0.909398
0.893208
0.876823
0.860225
0.843396
0.826319
0.808974
0.791345
0.773412
0.755157
0.736559
0.717597
0.698252
0.678499
0.658314
0.637672
0.616541
0.594888
0.572672
0.549844
0.526341
0.502077
0.476936
0.450737
0.423199
0.393873
0.362228
1.17861
1.17353
1.16371
1.15426
1.14526
1.13675
1.12873
1.12119
1.11412
1.10749
1.10127
1.09545
1.09
1.08492
1.08019
1.0758
1.07175
1.06803
1.06464
1.06159
1.05887
1.05648
1.05443
1.05272
1.05135
1.05033
1.04966
1.04933
1.04936
1.04975
1.05049
1.05158
1.05306
1.05496
1.05774
1.06468
1.05853
1.03895
1.023
1.00756
0.992171
0.976745
0.961241
0.945632
0.929897
0.914013
0.897963
0.881727
0.865287
0.848625
0.831723
0.814563
0.797124
0.77939
0.761339
0.742951
0.724205
0.705078
0.685546
0.665581
0.645153
0.624227
0.60276
0.580696
0.557967
0.534474
0.510082
0.484594
0.457708
0.428937
0.39743
0.361412
1.18062
1.17191
1.16243
1.15326
1.1445
1.13619
1.12834
1.12093
1.11397
1.10742
1.10128
1.09553
1.09014
1.08511
1.08044
1.0761
1.0721
1.06843
1.0651
1.06211
1.05946
1.05714
1.05517
1.05355
1.05229
1.05139
1.05085
1.05068
1.05089
1.05149
1.05248
1.05386
1.05566
1.0579
1.06068
1.06392
1.05989
1.04511
1.02977
1.01443
0.999087
0.983697
0.968235
0.952675
0.936994
0.921172
0.90519
0.889029
0.872671
0.856098
0.83929
0.82223
0.804899
0.787277
0.769345
0.751081
0.732464
0.71347
0.694075
0.674248
0.653958
0.633166
0.611822
0.589863
0.567204
0.543726
0.519261
0.493564
0.466268
0.436821
0.404367
0.367496
1.17946
1.17152
1.1621
1.15309
1.14445
1.13623
1.12843
1.12106
1.1141
1.10755
1.1014
1.09562
1.0902
1.08515
1.08044
1.07607
1.07205
1.06836
1.06501
1.06201
1.05935
1.05705
1.0551
1.05351
1.05229
1.05145
1.051
1.05094
1.05128
1.05203
1.05321
1.05481
1.05687
1.05935
1.06208
1.06377
1.05844
1.04516
1.0302
1.01499
0.999746
0.984465
0.969124
0.953697
0.938161
0.922495
0.90668
0.890696
0.874526
0.858151
0.841551
0.824709
0.807606
0.790221
0.772534
0.754525
0.736171
0.717448
0.69833
0.678788
0.658787
0.638287
0.617235
0.595564
0.573179
0.549952
0.525697
0.500149
0.472919
0.443452
0.411032
0.375225
1.1793
1.17033
1.16141
1.15269
1.14429
1.13624
1.12857
1.12131
1.11443
1.10795
1.10184
1.0961
1.09072
1.0857
1.08102
1.07668
1.07269
1.06904
1.06574
1.06278
1.06018
1.05794
1.05606
1.05457
1.05345
1.05273
1.05242
1.05252
1.05306
1.05403
1.05547
1.05737
1.05976
1.06262
1.06571
1.06749
1.06106
1.0475
1.03255
1.01743
1.00231
0.987169
0.971981
0.956716
0.941351
0.925866
0.910239
0.894452
0.878486
0.862322
0.845942
0.829326
0.812454
0.795308
0.777865
0.760106
0.742006
0.723541
0.704686
0.68541
0.665679
0.645451
0.624674
0.603276
0.581164
0.558205
0.53421
0.508908
0.481914
0.45267
0.420332
0.383299
1.17869
1.17312
1.16467
1.15623
1.14802
1.14011
1.13255
1.12536
1.11853
1.11207
1.10597
1.10023
1.09484
1.0898
1.0851
1.08074
1.07673
1.07305
1.06973
1.06675
1.06414
1.06189
1.06002
1.05854
1.05745
1.05678
1.05653
1.05672
1.05737
1.05849
1.0601
1.06221
1.06487
1.06809
1.07196
1.07587
1.06792
1.05217
1.03671
1.02152
1.00642
0.991327
0.976197
0.961002
0.94572
0.930329
0.91481
0.899142
0.883307
0.867287
0.851062
0.834613
0.817921
0.800965
0.783725
0.766178
0.748302
0.730072
0.711463
0.692444
0.672982
0.653037
0.632558
0.611479
0.589709
0.567123
0.543544
0.518722
0.492306
0.46381
0.432557
0.397669
1.16918
1.16793
1.15965
1.15141
1.1434
1.13566
1.12825
1.12116
1.11443
1.10805
1.10201
1.09632
1.09097
1.08596
1.08129
1.07696
1.07297
1.06932
1.06603
1.06309
1.06051
1.05831
1.0565
1.05508
1.05408
1.0535
1.05337
1.0537
1.05451
1.05583
1.05767
1.06006
1.06303
1.06669
1.07162
1.08178
1.07683
1.05665
1.04093
1.02586
1.01089
0.995914
0.980905
0.965837
0.950689
0.935442
0.920077
0.904574
0.888916
0.873084
0.857058
0.840819
0.824346
0.807621
0.79062
0.773323
0.755705
0.737743
0.719411
0.700681
0.681521
0.661894
0.641754
0.621044
0.599684
0.577568
0.554544
0.530398
0.50484
0.477492
0.447865
0.41495
1.17185
1.16489
1.15682
1.14883
1.14106
1.13355
1.12632
1.11941
1.11283
1.10657
1.10065
1.09506
1.08981
1.08489
1.0803
1.07606
1.07215
1.06858
1.06537
1.06252
1.06003
1.05793
1.05622
1.05493