/*--------------------------------*- C++ -*----------------------------------*\
| =========                 |                                                 |
| \\      /  F ield         | OpenFOAM: The Open Source CFD Toolbox           |
|  \\    /   O peration     | Version:  2312                                  |
|   \\  /    A nd           | Website:  www.openfoam.com                      |
|    \\/     M anipulation  |                                                 |
\*---------------------------------------------------------------------------*/
FoamFile
{
    version     2.0;
    format      ascii;
    arch        "LSB;label=32;scalar=64";
    class       volScalarField;
    location    "0.025";
    object      T;
}
// * * * * * * * * * * * * * * * * * * * * * * * * * * * * * * * * * * * * * //

dimensions      [0 0 0 1 0 0 0];

internalField   nonuniform List<scalar> 
195600
(
1.02936
1.07162
1.09553
1.10777
1.11343
1.11536
1.11508
1.11339
1.11078
1.10755
1.10392
1.09999
1.09583
1.09143
1.08672
1.08145
1.07481
1.06375
1.05754
1.0585
1.05841
1.05804
1.05743
1.05662
1.05569
1.05469
1.05367
1.05267
1.05176
1.051
1.05047
1.05028
1.05052
1.05121
1.05195
1.05058
1.04655
1.03861
1.02692
1.0136
0.999513
0.985019
0.97023
0.955166
0.939819
0.924179
0.908236
0.891978
0.875395
0.858478
0.841218
0.82361
0.805634
0.787153
0.768341
0.748714
0.728555
0.708052
0.687185
0.66592
0.644219
0.622045
0.599367
0.576165
0.55244
0.528218
0.503581
0.478708
0.453944
0.42986
0.407077
0.384327
1.0268
1.06944
1.09413
1.10696
1.113
1.11516
1.115
1.11338
1.11082
1.10763
1.10401
1.1001
1.09595
1.09156
1.08687
1.08163
1.07518
1.06591
1.06053
1.06026
1.05971
1.05898
1.05813
1.05717
1.05613
1.05505
1.05397
1.05293
1.05199
1.05121
1.05066
1.05046
1.0507
1.05143
1.05233
1.05188
1.04791
1.03914
1.02711
1.01367
0.999564
0.985064
0.97026
0.955174
0.939803
0.924138
0.90817
0.891887
0.87528
0.85834
0.841058
0.82343
0.805448
0.787119
0.768157
0.748419
0.728278
0.707791
0.686929
0.665651
0.643926
0.621721
0.599009
0.57577
0.552004
0.527734
0.503038
0.478087
0.453221
0.429046
0.406492
0.386596
1.02947
1.07212
1.09572
1.10782
1.11351
1.1155
1.11526
1.11361
1.11102
1.10782
1.1042
1.10028
1.09613
1.09175
1.08707
1.08189
1.07568
1.06771
1.0621
1.06073
1.06
1.05926
1.05841
1.05744
1.05639
1.05529
1.0542
1.05315
1.0522
1.05141
1.05086
1.05066
1.05091
1.05172
1.05292
1.05335
1.04921
1.03955
1.02709
1.01346
0.999281
0.984741
0.969902
0.954782
0.939378
0.92368
0.907678
0.891362
0.874722
0.857748
0.840432
0.822772
0.804768
0.786472
0.767373
0.747569
0.727422
0.706922
0.68604
0.664736
0.642976
0.620728
0.597967
0.574674
0.550843
0.526496
0.501697
0.476602
0.451533
0.427135
0.404691
0.38719
1.0339
1.07627
1.09807
1.10905
1.11416
1.11586
1.11547
1.11373
1.1111
1.10787
1.10423
1.10031
1.09615
1.09178
1.08712
1.08201
1.07606
1.06902
1.06319
1.06109
1.06019
1.05944
1.05859
1.0576
1.05653
1.05542
1.05431
1.05324
1.05229
1.05149
1.05094
1.05073
1.051
1.05192
1.05352
1.055
1.05072
1.03987
1.02675
1.01285
0.998561
0.983958
0.969074
0.953911
0.938465
0.922725
0.906681
0.890321
0.873637
0.856617
0.839256
0.821549
0.803504
0.785175
0.765964
0.746108
0.725929
0.705399
0.684482
0.663136
0.641325
0.619019
0.596191
0.572822
0.548903
0.524445
0.499498
0.474191
0.44881
0.423987
0.401209
0.384497
1.04074
1.08197
1.10115
1.11059
1.11492
1.11621
1.1156
1.11373
1.11101
1.10773
1.10407
1.10012
1.09596
1.09159
1.08696
1.08194
1.07625
1.06987
1.06382
1.06128
1.06027
1.0595
1.05863
1.05761
1.05651
1.05537
1.05424
1.05316
1.05219
1.05138
1.05082
1.05061
1.0509
1.05194
1.05404
1.05695
1.05257
1.04
1.02602
1.01178
0.997341
0.982654
0.967705
0.952486
0.936986
0.921193
0.905095
0.888681
0.871942
0.854866
0.837447
0.819681
0.801577
0.783184
0.763912
0.744
0.723757
0.703169
0.682195
0.660786
0.638905
0.61652
0.593605
0.570139
0.546106
0.521507
0.496371
0.470787
0.444976
0.419482
0.395727
0.377872
1.05102
1.08929
1.10487
1.1124
1.11573
1.11647
1.11556
1.11351
1.11067
1.10732
1.10361
1.09964
1.09547
1.0911
1.0865
1.08157
1.07614
1.07028
1.064
1.06126
1.0602
1.0594
1.05848
1.05742
1.05627
1.05508
1.05392
1.05282
1.05184
1.05102
1.05044
1.05022
1.05053
1.05168
1.05434
1.05937
1.05491
1.03981
1.0248
1.01018
0.995563
0.980765
0.965733
0.950442
0.934874
0.919016
0.902854
0.886376
0.869571
0.852429
0.834941
0.817104
0.798925
0.780455
0.761202
0.741209
0.720863
0.700188
0.679133
0.657638
0.635665
0.613181
0.590159
0.566574
0.542404
0.517636
0.492271
0.46635
0.439998
0.41358
0.388136
0.367199
1.0664
1.09813
1.1091
1.11438
1.11653
1.11663
1.11534
1.11305
1.11007
1.10663
1.10286
1.09885
1.09466
1.0903
1.08573
1.0809
1.07572
1.07029
1.06371
1.061
1.05996
1.05913
1.05815
1.05702
1.0558
1.05458
1.05338
1.05225
1.05125
1.05041
1.04982
1.04959
1.0499
1.05113
1.05432
1.06259
1.05803
1.03908
1.02302
1.00802
0.993197
0.978271
0.963145
0.947775
0.932134
0.916204
0.899971
0.883421
0.866543
0.849325
0.831758
0.813837
0.795565
0.77698
0.757727
0.737699
0.717308
0.696544
0.675369
0.653747
0.631647
0.609034
0.585878
0.562148
0.537814
0.512846
0.487217
0.460906
0.433919
0.406362
0.378572
0.352373
1.08867
1.10684
1.11261
1.11576
1.11686
1.11639
1.11479
1.11232
1.10921
1.1057
1.10189
1.09786
1.09366
1.08932
1.0848
1.08008
1.07514
1.0701
1.06621
1.06355
1.06159
1.05998
1.05847
1.05699
1.05557
1.0542
1.05292
1.05174
1.05069
1.04983
1.04922
1.04897
1.04926
1.05051
1.054
1.0673
1.06224
1.03737
1.0207
1.00545
0.990477
0.975454
0.960248
0.944801
0.929081
0.913069
0.896751
0.880114
0.863145
0.845835
0.828171
0.810147
0.791756
0.77299
0.753642
0.733635
0.713219
0.692358
0.671043
0.649269
0.627013
0.604241
0.58092
0.557015
0.532489
0.507296
0.481378
0.454651
0.426982
0.398125
0.367505
0.332989
1.12306
1.11607
1.11661
1.11758
1.11759
1.1165
1.11449
1.11178
1.10856
1.10497
1.10111
1.09705
1.09284
1.08851
1.08404
1.07942
1.07471
1.07027
1.06896
1.0661
1.06316
1.06074
1.0587
1.05692
1.05531
1.05384
1.0525
1.05128
1.05022
1.04935
1.04873
1.04845
1.04871
1.04988
1.053
1.0607
1.05492
1.03492
1.01842
1.00308
0.988018
0.972907
0.957616
0.942081
0.926268
0.910162
0.893748
0.877013
0.859945
0.842532
0.824762
0.806626
0.788109
0.769183
0.749715
0.72966
0.709154
0.688193
0.66677
0.644874
0.622483
0.599568
0.576096
0.552028
0.527321
0.501915
0.475725
0.448606
0.420298
0.390247
0.357243
0.317793
1.14926
1.12639
1.1218
1.12031
1.11898
1.11708
1.11452
1.11148
1.10808
1.10434
1.10039
1.09627
1.09203
1.08769
1.08325
1.07873
1.07422
1.07015
1.06818
1.06541
1.06259
1.06017
1.0581
1.05629
1.05465
1.05316
1.05181
1.05059
1.04952
1.04864
1.048
1.04768
1.04785
1.04882
1.05122
1.05529
1.04902
1.03201
1.01593
1.00057
0.985422
0.970218
0.954836
0.939211
0.92331
0.907117
0.890616
0.873795
0.856639
0.839136
0.821274
0.803038
0.784412
0.765361
0.745796
0.72569
0.705115
0.684075
0.662565
0.640571
0.618073
0.595041
0.571443
0.547239
0.522377
0.496788
0.470362
0.44291
0.414083
0.383172
0.348755
0.307989
1.16486
1.13561
1.12668
1.12292
1.12031
1.11766
1.11465
1.11132
1.10772
1.10386
1.09983
1.09566
1.09141
1.08708
1.08269
1.07827
1.07394
1.07011
1.06774
1.06501
1.06228
1.05988
1.0578
1.05596
1.05431
1.05282
1.05146
1.05024
1.04917
1.04828
1.04762
1.04725
1.04732
1.04803
1.04966
1.05147
1.04485
1.02953
1.01389
0.998583
0.983373
0.968084
0.952612
0.936896
0.920905
0.904619
0.888027
0.871112
0.85386
0.836259
0.818294
0.79995
0.781208
0.762032
0.742362
0.72218
0.701521
0.680389
0.658778
0.636674
0.614057
0.590897
0.567163
0.542811
0.517788
0.492016
0.465369
0.437631
0.408403
0.376911
0.341643
0.299836
1.17887
1.14412
1.13166
1.12582
1.12197
1.11857
1.11509
1.11145
1.10763
1.10363
1.0995
1.09528
1.091
1.08667
1.08232
1.07798
1.07379
1.0701
1.06746
1.06473
1.06205
1.05966
1.05756
1.05569
1.05402
1.0525
1.05113
1.04989
1.0488
1.04788
1.04717
1.04673
1.04665
1.04705
1.04797
1.04851
1.04163
1.02704
1.01177
0.996525
0.981274
0.965907
0.950346
0.934542
0.918464
0.902093
0.885413
0.868409
0.851067
0.833373
0.815313
0.796869
0.778022
0.758739
0.738976
0.718718
0.69798
0.676765
0.655065
0.632865
0.610145
0.586877
0.563028
0.538556
0.513405
0.487495
0.460696
0.432786
0.403363
0.371682
0.336371
0.295224
1.18673
1.15128
1.13609
1.12834
1.12326
1.11906
1.11507
1.11108
1.10701
1.10285
1.09861
1.09432
1.09
1.08566
1.08134
1.07707
1.073
1.06939
1.06658
1.06382
1.06118
1.05879
1.05668
1.05479
1.0531
1.05156
1.05017
1.04892
1.04781
1.04687
1.04611
1.04558
1.04534
1.04543
1.04576
1.04603
1.03881
1.02419
1.0093
0.99423
0.979041
0.963685
0.948111
0.932281
0.916167
0.899753
0.883023
0.865964
0.848563
0.830805
0.812676
0.794159
0.775233
0.75587
0.736036
0.715716
0.694915
0.673632
0.651857
0.629575
0.606767
0.583404
0.559456
0.534881
0.509624
0.483609
0.45671
0.428723
0.399283
0.367747
0.332996
0.293268
1.19346
1.15805
1.14087
1.13148
1.12526
1.1203
1.1158
1.11145
1.10714
1.10281
1.09846
1.0941
1.08974
1.08539
1.08109
1.07689
1.07291
1.06935
1.06642
1.06365
1.06103
1.05865
1.05652
1.05462
1.05291
1.05136
1.04995
1.04868
1.04756
1.04658
1.04576
1.04514
1.04472
1.04449
1.04421
1.04292
1.03531
1.02185
1.00731
0.992401
0.977265
0.961913
0.946316
0.930447
0.914284
0.897811
0.881017
0.863889
0.846414
0.828579
0.810369
0.791768
0.772754
0.753302
0.733386
0.712992
0.692116
0.670755
0.648897
0.626529
0.603629
0.580173
0.556129
0.531458
0.506112
0.480021
0.453077
0.425109
0.395825
0.364737
0.331078
0.293823
1.19939
1.16383
1.14527
1.13449
1.12722
1.12152
1.1165
1.11179
1.10722
1.1027
1.09822
1.09377
1.08936
1.08499
1.0807
1.07654
1.07261
1.06908
1.06607
1.06326
1.06063
1.05825
1.0561
1.05417
1.05244
1.05086
1.04943
1.04814
1.04698
1.04595
1.04507
1.04433
1.04372
1.04316
1.04232
1.04007
1.0323
1.01934
1.005
0.990147
0.975004
0.95961
0.943956
0.928025
0.911798
0.895263
0.878407
0.861216
0.84368
0.825783
0.80751
0.788845
0.769768
0.750255
0.730285
0.709842
0.688919
0.667511
0.645604
0.623184
0.600231
0.576721
0.552624
0.527907
0.502526
0.476424
0.449522
0.421698
0.392761
0.362412
0.330328
0.297587
1.19977
1.16772
1.14846
1.13666
1.12858
1.12229
1.11687
1.11189
1.10714
1.10251
1.09796
1.09347
1.08905
1.08471
1.08046
1.07637
1.07253
1.06905
1.06602
1.06322
1.06062
1.05826
1.05613
1.05422
1.05249
1.05093
1.04952
1.04824
1.04708
1.04604
1.04512
1.04429
1.04352
1.04268
1.04145
1.0388
1.03087
1.01792
1.00365
0.988825
0.973662
0.958217
0.942499
0.926496
0.910197
0.89359
0.876661
0.859399
0.84179
0.82382
0.805474
0.786734
0.767582
0.747995
0.727955
0.707446
0.686459
0.664985
0.64301
0.620518
0.597492
0.573906
0.549736
0.524952
0.499517
0.473393
0.446528
0.418861
0.390311
0.360757
0.329935
0.296847
1.20354
1.17162
1.15199
1.13941
1.13062
1.12379
1.11798
1.11273
1.10778
1.10302
1.09838
1.09384
1.0894
1.08505
1.08083
1.07679
1.07299
1.06954
1.06648
1.06367
1.06107
1.05871
1.05658
1.05466
1.05293
1.05136
1.04994
1.04864
1.04747
1.04639
1.04541
1.04448
1.04354
1.04245
1.04093
1.03842
1.0303
1.01684
1.00251
0.98767
0.972461
0.956949
0.94115
0.925064
0.908681
0.89199
0.874981
0.857639
0.839952
0.821905
0.803483
0.784668
0.765442
0.745785
0.725679
0.705109
0.684064
0.662532
0.6405
0.617952
0.594869
0.571229
0.547008
0.522183
0.496725
0.470612
0.443827
0.416367
0.388269
0.359622
0.330453
0.299426
1.20344
1.17406
1.15425
1.14098
1.13149
1.12409
1.11785
1.11227
1.10709
1.10216
1.0974
1.09278
1.08828
1.08391
1.0797
1.07567
1.0719
1.06846
1.06536
1.06253
1.05993
1.05756
1.05542
1.05348
1.05173
1.05015
1.04871
1.0474
1.0462
1.04509
1.04405
1.04303
1.04197
1.04071
1.03906
1.03755
1.02947
1.01502
1.00075
0.986005
0.970867
0.955399
0.939626
0.923551
0.907171
0.890475
0.873455
0.856097
0.83839
0.820319
0.80187
0.783027
0.763771
0.744084
0.723949
0.703352
0.682279
0.660717
0.638653
0.616071
0.592952
0.569275
0.54502
0.520165
0.494694
0.468596
0.441886
0.414618
0.386941
0.359186
0.332084
0.307781
1.20516
1.17697
1.15717
1.14339
1.13332
1.12541
1.11878
1.1129
1.10749
1.10239
1.09751
1.09282
1.08828
1.08389
1.07968
1.07567
1.07193
1.0685
1.06539
1.06255
1.05995
1.05758
1.05543
1.05349
1.05174
1.05015
1.0487
1.04738
1.04616
1.04502
1.04393
1.04284
1.04166
1.04025
1.03838
1.03563
1.02745
1.01413
0.999993
0.985314
0.970219
0.954773
0.939005
0.922922
0.906522
0.8898
0.872745
0.855348
0.837598
0.819481
0.800982
0.782088
0.76278
0.743041
0.722856
0.70221
0.681088
0.659479
0.637366
0.614734
0.591566
0.567841
0.543541
0.518649
0.493154
0.46706
0.440402
0.413281
0.38593
0.358859
0.333208
0.311583
1.20751
1.17964
1.15998
1.14582
1.13523
1.12684
1.11981
1.11361
1.10795
1.10267
1.09765
1.09284
1.08823
1.08379
1.07955
1.07554
1.07178
1.06834
1.0652
1.06233
1.0597
1.05731
1.05514
1.05317
1.0514
1.04978
1.04831
1.04696
1.04571
1.04453
1.04338
1.0422
1.0409
1.03933
1.03722
1.0338
1.02541
1.01242
0.998278
0.983564
0.968435
0.952953
0.937147
0.921024
0.904587
0.887827
0.870739
0.85331
0.835531
0.817386
0.798864
0.779947
0.76062
0.740867
0.720672
0.700019
0.678895
0.657286
0.635177
0.612552
0.589393
0.565683
0.541404
0.516542
0.49109
0.465062
0.438504
0.411542
0.384447
0.357799
0.33287
0.312793
1.20489
1.18054
1.16137
1.14711
1.13624
1.12757
1.12028
1.1139
1.10811
1.10273
1.09766
1.09283
1.08822
1.08381
1.07961
1.07564
1.07194
1.06854
1.06543
1.06259
1.05999
1.05763
1.05549
1.05356
1.05181
1.05022
1.04877
1.04744
1.0462
1.04501
1.04384
1.04261
1.04124
1.03958
1.03737
1.03388
1.02527
1.01207
0.997817
0.983042
0.967864
0.952335
0.936481
0.920312
0.903828
0.887025
0.869893
0.852425
0.834606
0.816425
0.797866
0.778916
0.759557
0.739774
0.719552
0.698874
0.677727
0.656096
0.633967
0.611322
0.588146
0.56442
0.540128
0.515258
0.489805
0.463783
0.437245
0.410312
0.383251
0.356593
0.331364
0.309286
1.20682
1.18247
1.16379
1.14953
1.13845
1.12953
1.12202
1.11545
1.10952
1.10404
1.0989
1.09403
1.08939
1.08498
1.08079
1.07684
1.07316
1.06976
1.06666
1.06382
1.06122
1.05887
1.05673
1.05479
1.05304
1.05144
1.04999
1.04865
1.04738
1.04617
1.04495
1.04366
1.0422
1.04044
1.03823
1.03529
1.02635
1.01233
0.997845
0.982953
0.967683
0.95207
0.936135
0.919888
0.90333
0.886457
0.86926
0.85173
0.833855
0.815621
0.797013
0.778018
0.758619
0.7388
0.718547
0.697843
0.676675
0.655027
0.632884
0.610231
0.58705
0.563324
0.539038
0.514177
0.488737
0.462727
0.436188
0.409222
0.382037
0.355032
0.328912
0.30485
1.20438
1.18235
1.16411
1.14981
1.1385
1.12929
1.12151
1.11471
1.10859
1.10296
1.0977
1.09274
1.08805
1.0836
1.07938
1.07543
1.07174
1.06833
1.06521
1.06236
1.05975
1.05738
1.05524
1.05329
1.05153
1.04993
1.04847
1.04713
1.04586
1.04464
1.04341
1.0421
1.04063
1.03887
1.0368
1.0355
1.02704
1.01167
0.997118
0.982258
0.967029
0.951455
0.935556
0.919342
0.902814
0.885967
0.868794
0.851285
0.833428
0.815211
0.796619
0.777639
0.758255
0.738452
0.718214
0.697526
0.676373
0.654741
0.632614
0.609976
0.58681
0.5631
0.538828
0.513979
0.488545
0.462525
0.435942
0.408856
0.381389
0.353763
0.326302
0.299383
1.20504
1.18332
1.16549
1.15123
1.13977
1.13033
1.12233
1.11533
1.10905
1.10329
1.09794
1.09292
1.08818
1.0837
1.07949
1.07553
1.07185
1.06845
1.06534
1.06249
1.05989
1.05753
1.05539
1.05346
1.05171
1.05013
1.04868
1.04735
1.04609
1.04488
1.04366
1.04235
1.04089
1.03915
1.03702
1.03428
1.02616
1.01233
0.9979
0.983057
0.96784
0.952279
0.93639
0.92018
0.903652
0.886801
0.86962
0.852099
0.834229
0.815996
0.797388
0.77839
0.758987
0.739166
0.71891
0.698206
0.677038
0.655391
0.63325
0.6106
0.587423
0.563702
0.53942
0.514559
0.489104
0.463042
0.436371
0.409098
0.381249
0.352855
0.32389
0.294054
1.20652
1.18464
1.16718
1.15297
1.14135
1.13169
1.12345
1.11622
1.10974
1.10381
1.09832
1.09319
1.08836
1.08382
1.07955
1.07556
1.07184
1.06841
1.06526
1.06238
1.05976
1.05737
1.05521
1.05326
1.0515
1.0499
1.04844
1.0471
1.04584
1.04462
1.04338
1.04207
1.04059
1.03883
1.0366
1.03316
1.02466
1.01128
0.996828
0.981921
0.966656
0.95106
0.935145
0.918918
0.902378
0.88552
0.868338
0.850822
0.832961
0.814743
0.796155
0.777182
0.75781
0.738024
0.71781
0.697153
0.676038
0.654451
0.632375
0.609795
0.586695
0.563057
0.538863
0.514091
0.48872
0.462723
0.436069
0.408712
0.380579
0.351535
0.321339
0.28992
1.20323
1.18426
1.16747
1.15353
1.14197
1.13226
1.12393
1.11663
1.11008
1.10411
1.09859
1.09345
1.08864
1.08412
1.07988
1.07593
1.07225
1.06886
1.06575
1.06291
1.06033
1.05798
1.05586
1.05394
1.05222
1.05066
1.04925
1.04795
1.04673
1.04555
1.04435
1.04307
1.04162
1.03991
1.03775
1.03435
1.02547
1.01183
0.997246
0.982259
0.96694
0.951304
0.935361
0.919112
0.902556
0.885689
0.868501
0.850984
0.833126
0.814915
0.796337
0.777378
0.758023
0.738258
0.718068
0.697438
0.676354
0.6548
0.632761
0.610221
0.587165
0.563573
0.539427
0.514703
0.489371
0.463393
0.436709
0.409227
0.380787
0.351099
0.319596
0.285083
1.20481
1.18574
1.16954
1.15587
1.14439
1.13465
1.12626
1.11887
1.11225
1.10622
1.10066
1.09549
1.09065
1.08612
1.08188
1.07793
1.07426
1.07088
1.06777
1.06493
1.06234
1.06
1.05788
1.05596
1.05424
1.05268
1.05127
1.04997
1.04875
1.04757
1.04637
1.04509
1.04365
1.04197
1.03998
1.03743
1.028
1.01332
0.998423
0.983286
0.967856
0.952129
0.936107
0.919791
0.903176
0.886257
0.869027
0.851474
0.833587
0.815354
0.796762
0.777794
0.758438
0.738679
0.718501
0.69789
0.676831
0.655309
0.63331
0.610817
0.587814
0.564283
0.540204
0.515552
0.490291
0.464371
0.437713
0.410188
0.381571
0.351476
0.319231
0.283777
1.20091
1.18413
1.16841
1.15493
1.14348
1.13367
1.12516
1.11765
1.11091
1.10477
1.09912
1.09388
1.08898
1.08441
1.08014
1.07617
1.07248
1.06908
1.06596
1.06311
1.06051
1.05816
1.05604
1.05413
1.05241
1.05087
1.04947
1.0482
1.04701
1.04587
1.04472
1.04351
1.04216
1.04062
1.03895
1.03872
1.03027
1.01384
0.998846
0.983724
0.968325
0.952636
0.936659
0.92039
0.903826
0.88696
0.869783
0.852285
0.834454
0.816278
0.797742
0.778833
0.759536
0.739837
0.71972
0.699172
0.678177
0.65672
0.634788
0.612364
0.589434
0.565978
0.541978
0.517407
0.492228
0.466384
0.439785
0.41228
0.38361
0.353344
0.320744
0.284649
1.20134
1.184
1.16869
1.15545
1.14407
1.13426
1.12568
1.11809
1.11127
1.10506
1.09935
1.09407
1.08915
1.08456
1.08029
1.07632
1.07265
1.06926
1.06615
1.06332
1.06074
1.05842
1.05632
1.05445
1.05277
1.05127
1.04992
1.0487
1.04758
1.0465
1.04544
1.04432
1.04309
1.04167
1.04003
1.03797
1.03037
1.01612
1.00131
0.986203
0.970808
0.955127
0.939161
0.922905
0.906355
0.889503
0.87234
0.854856
0.837039
0.818875
0.800353
0.781458
0.762175
0.742491
0.72239
0.70186
0.680884
0.659449
0.63754
0.615143
0.592244
0.568825
0.544869
0.52035
0.495232
0.46946
0.442943
0.415524
0.386948
0.356789
0.324345
0.28843
1.20237
1.18465
1.16967
1.1566
1.14526
1.13538
1.12669
1.11897
1.11202
1.10568
1.09986
1.09447
1.08947
1.08481
1.08048
1.07645
1.07273
1.0693
1.06616
1.0633
1.0607
1.05835
1.05624
1.05436
1.05268
1.05118
1.04985
1.04866
1.04756
1.04653
1.04552
1.04447
1.04332
1.042
1.04031
1.03743
1.02921
1.0156
1.00083
0.985683
0.970255
0.954558
0.938589
0.922344
0.905814
0.888992
0.871867
0.85443
0.836667
0.818566
0.800113
0.781295
0.762097
0.742505
0.722504
0.70208
0.681219
0.659906
0.638128
0.615871
0.59312
0.569862
0.54608
0.521753
0.49685
0.471323
0.445091
0.418017
0.389873
0.360297
0.3288
0.295088
1.19914
1.18375
1.16939
1.15669
1.14555
1.13578
1.12714
1.11943
1.11247
1.10614
1.10032
1.09495
1.08996
1.08533
1.08103
1.07704
1.07335
1.06996
1.06686
1.06404
1.06148
1.05918
1.05712
1.05529
1.05367
1.05224
1.05098
1.04986
1.04886
1.04792
1.04702
1.04609
1.04508
1.04391
1.04241
1.03964
1.03085
1.01695
1.00207
0.986858
0.971401
0.955694
0.939728
0.923496
0.90699
0.8902
0.873115
0.855723
0.838013
0.81997
0.801581
0.782831
0.763706
0.744192
0.724272
0.703934
0.683163
0.661944
0.640264
0.61811
0.595469
0.572328
0.548675
0.524494
0.499763
0.474446
0.448486
0.421775
0.394134
0.365268
0.334746
0.301987
1.2006
1.18544
1.17161
1.15925
1.14832
1.13864
1.13004
1.12233
1.11537
1.10901
1.10318
1.09778
1.09278
1.08813
1.08382
1.07983
1.07613
1.07274
1.06963
1.0668
1.06424
1.06194
1.05988
1.05805
1.05644
1.05502
1.05378
1.05268
1.05171
1.05082
1.04997
1.04911
1.0482
1.04717
1.046
1.04438
1.03479
1.01958
1.00433
0.988975
0.973417
0.95763
0.941602
0.925322
0.908781
0.891967
0.874869
0.857475
0.839771
0.821745
0.803382
0.784667
0.765586
0.746124
0.726266
0.705997
0.685302
0.664169
0.642583
0.620532
0.598004
0.57499
0.55148
0.527464
0.502933
0.477871
0.452248
0.426007
0.399033
0.371114
0.341949
0.311861
1.19525
1.18276
1.16932
1.15722
1.14643
1.13681
1.12821
1.12048
1.11346
1.10705
1.10116
1.09572
1.09067
1.08599
1.08165
1.07763
1.07392
1.07051
1.06739
1.06456
1.062
1.0597
1.05765
1.05584
1.05425
1.05287
1.05168
1.05065
1.04975
1.04896
1.04823
1.04752
1.04678
1.04599
1.04533
1.04686
1.0388
1.02134
1.00595
0.99061
0.975092
0.959354
0.943383
0.927169
0.910699
0.893963
0.876948
0.859641
0.842029
0.824098
0.805833
0.787219
0.768241
0.748885
0.729136
0.708978
0.688397
0.66738
0.645913
0.623984
0.601584
0.578705
0.555341
0.531492
0.50716
0.482352
0.457078
0.431341
0.405114
0.378265
0.350296
0.319567
1.19585
1.18178
1.16874
1.15693
1.14633
1.13683
1.12829
1.12057
1.11356
1.10715
1.10125
1.0958
1.09076
1.08609
1.08176
1.07776
1.07407
1.07069
1.0676
1.0648
1.06228
1.06003
1.05803
1.05628
1.05476
1.05346
1.05235
1.05142
1.05064
1.04998
1.0494
1.04887
1.04835
1.04779
1.04717
1.04635
1.03968
1.02522
1.01015
0.994856
0.97935
0.963626
0.947673
0.931483
0.915041
0.898337
0.881356
0.864087
0.846514
0.828624
0.810402
0.791833
0.772903
0.753596
0.733897
0.713792
0.693266
0.672306
0.650899
0.629034
0.606702
0.583897
0.56062
0.536877
0.512684
0.488073
0.463095
0.437827
0.412372
0.386804
0.360847
0.331949
1.19638
1.18197
1.16919
1.15759
1.1471
1.13763
1.12907
1.1213
1.11421
1.10772
1.10174
1.09621
1.0911
1.08635
1.08196
1.07791
1.07417
1.07075
1.06763
1.0648
1.06226
1.06
1.058
1.05625
1.05475
1.05348
1.05242
1.05155
1.05084
1.05028
1.04983
1.04945
1.04909
1.0487
1.04807
1.04621
1.03866
1.02509
1.01017
0.994882
0.979379
0.963673
0.947755
0.931612
0.915232
0.898601
0.881705
0.864531
0.847064
0.829289
0.811192
0.792758
0.77397
0.754815
0.735277
0.715341
0.694992
0.674216
0.653001
0.631335
0.60921
0.586623
0.563575
0.54008
0.516165
0.491883
0.467325
0.442642
0.41809
0.394113
0.371685
0.354135
1.19372
1.18083
1.16862
1.1574
1.14717
1.13788
1.12944
1.12175
1.11472
1.10826
1.10231
1.09682
1.09173
1.08702
1.08266
1.07863
1.07494
1.07155
1.06847
1.06569
1.0632
1.06099
1.05905
1.05738
1.05595
1.05477
1.05381
1.05306
1.0525
1.05209
1.05182
1.05164
1.05152
1.0514
1.05106
1.04936
1.04105
1.02715
1.01213
0.996817
0.981327
0.965654
0.949785
0.933704
0.917397
0.900849
0.884045
0.866971
0.849613
0.831954
0.813979
0.795673
0.77702
0.758004
0.738609
0.71882
0.698622
0.678
0.65694
0.635432
0.613466
0.591039
0.568156
0.544831
0.521102
0.497035
0.472751
0.448459
0.424522
0.401602
0.380981
0.365142
1.19491
1.18295
1.17124
1.16036
1.15037
1.14123
1.13289
1.12526
1.11826
1.11181
1.10586
1.10035
1.09525
1.09053
1.08615
1.08211
1.0784
1.075
1.0719
1.06911
1.06661
1.06439
1.06245
1.06078
1.05938
1.05822
1.0573
1.0566
1.05611
1.05579
1.05563
1.0556
1.05565
1.05577
1.05594
1.05577
1.04639
1.03085
1.01539
0.999936
0.984368
0.968644
0.952742
0.936645
0.920336
0.903801
0.887023
0.869988
0.852679
0.835082
0.81718
0.798958
0.780398
0.761486
0.742205
0.722538
0.70247
0.681985
0.661069
0.63971
0.617897
0.595626
0.572899
0.549733
0.526163
0.502262
0.478157
0.454076
0.430415
0.407867
0.387685
0.372231
1.18799
1.17932
1.16789
1.15728
1.14748
1.13848
1.13022
1.12262
1.11563
1.10919
1.10322
1.0977
1.09257
1.08783
1.08344
1.07938
1.07566
1.07225
1.06915
1.06636
1.06387
1.06167
1.05976
1.05813
1.05677
1.05568
1.05484
1.05424
1.05386
1.0537
1.05372
1.0539
1.05422
1.05468
1.05558
1.05958
1.0523
1.03383
1.01817
1.00275
0.987243
0.971586
0.955761
0.93975
0.923538
0.907107
0.890442
0.873526
0.856345
0.83888
0.821117
0.803039
0.784629
0.76587
0.746747
0.727241
0.707337
0.687018
0.666269
0.645075
0.623424
0.60131
0.578731
0.555699
0.532243
0.508426
0.484365
0.460266
0.436484
0.413604
0.392524
0.374303
1.18905
1.17759
1.16654
1.15624
1.14669
1.13788
1.12975
1.12226
1.11534
1.10895
1.10303
1.09754
1.09246
1.08774
1.08339
1.07938
1.07569
1.07233
1.06928
1.06654
1.06411
1.06198
1.06014
1.0586
1.05733
1.05635
1.05563
1.05518
1.05497
1.055
1.05524
1.05568
1.0563
1.05707
1.058
1.05895
1.05363
1.03922
1.02407
1.00874
0.99326
0.977629
0.961835
0.945863
0.929696
0.913317
0.896709
0.879856
0.862741
0.845348
0.82766
0.80966
0.791332
0.77266
0.753625
0.734211
0.7144
0.694176
0.673521
0.65242
0.630859
0.608824
0.586311
0.563321
0.539871
0.516003
0.491801
0.467415
0.443105
0.419292
0.396594
0.37561
1.18877
1.17736
1.16652
1.15642
1.14701
1.13827
1.13018
1.12269
1.11575
1.10931
1.10334
1.0978
1.09266
1.0879
1.08349
1.07943
1.0757
1.0723
1.06923
1.06647
1.06402
1.06189
1.06006
1.05854
1.05731
1.05638
1.05574
1.05538
1.05529
1.05547
1.05589
1.05655
1.05741
1.05842
1.05933
1.05896
1.05251
1.0393
1.02442
1.00915
0.993718
0.978151
0.962439
0.946564
0.930509
0.914256
0.897787
0.881084
0.864132
0.846912
0.829409
0.811605
0.793483
0.775026
0.756217
0.737036
0.717467
0.69749
0.677087
0.65624
0.634931
0.613142
0.590858
0.56807
0.544774
0.520981
0.496725
0.472074
0.447157
0.422198
0.397646
0.374775
1.18713
1.17609
1.1658
1.15607
1.14694
1.13841
1.13047
1.12309
1.11623
1.10986
1.10394
1.09844
1.09334
1.0886
1.08423
1.0802
1.07651
1.07315
1.07012
1.06741
1.06502
1.06295
1.06119
1.05976
1.05863
1.05782
1.05731
1.05711
1.05721
1.0576
1.05827
1.0592
1.06039
1.06178
1.06309
1.06292
1.05553
1.04192
1.02695
1.01169
0.996313
0.980832
0.965224
0.949468
0.933544
0.917433
0.901116
0.884575
0.867792
0.850751
0.833433
0.815822
0.797899
0.779646
0.761046
0.742078
0.722725
0.702965
0.682779
0.662145
0.64104
0.619442
0.597325
0.574666
0.551438
0.527615
0.503172
0.478084
0.452323
0.425844
0.398543
0.369932
1.18761
1.17861
1.16887
1.15948
1.15058
1.14222
1.1344
1.1271
1.12029
1.11395
1.10803
1.10253
1.09741
1.09266
1.08827
1.08421
1.0805
1.07711
1.07406
1.07133
1.06892
1.06685
1.06509
1.06367
1.06256
1.06179
1.06134
1.06122
1.06142
1.06193
1.06277
1.06391
1.06536
1.06711
1.06917
1.07097
1.06227
1.0466
1.03105
1.01563
1.0002
0.984706
0.969107
0.953379
0.937498
0.921445
0.9052
0.888745
0.872062
0.855133
0.83794
0.820466
0.802691
0.784599
0.766169
0.747381
0.728216
0.708653
0.688667
0.668236
0.647333
0.625928
0.603986
0.581467
0.558321
0.534485
0.509874
0.484367
0.457784
0.429839
0.400075
0.367953
1.17876
1.17399
1.16448
1.15534
1.14666
1.13847
1.13077
1.12355
1.1168
1.1105
1.10461
1.09912
1.09401
1.08927
1.08487
1.08082
1.07711
1.07373
1.07069
1.06798
1.06559
1.06355
1.06184
1.06046
1.05943
1.05874
1.05839
1.0584
1.05875
1.05946
1.06052
1.06193
1.06371
1.06592
1.06901
1.07629
1.07034
1.0508
1.03491
1.01951
1.00416
0.988758
0.973262
0.957647
0.941889
0.92597
0.909868
0.893566
0.877045
0.860288
0.843275
0.825989
0.808411
0.790522
0.772302
0.753731
0.734787
0.715449
0.69569
0.675486
0.654804
0.63361
0.61186
0.589499
0.566457
0.542636
0.517898
0.492044
0.464767
0.435574
0.4036
0.367042
1.18076
1.17236
1.16318
1.15432
1.14587
1.13787
1.13033
1.12325
1.1166
1.11038
1.10457
1.09914
1.09409
1.08939
1.08505
1.08105
1.07738
1.07405
1.07106
1.06841
1.06609
1.06411
1.06248
1.06119
1.06026
1.05969
1.05948
1.05964
1.06017
1.06109
1.06239
1.06409
1.0662
1.06875
1.07184
1.07538
1.07156
1.05687
1.0416
1.02632
1.01101
0.995645
0.980193
0.964628
0.948929
0.933074
0.917044
0.90082
0.884385
0.867719
0.850805
0.833624
0.816157
0.798385
0.780289
0.761846
0.743036
0.723836
0.704219
0.684158
0.66362
0.642565
0.620944
0.598693
0.575726
0.551924
0.527116
0.501053
0.473365
0.443489
0.410558
0.373142
1.17961
1.17196
1.16284
1.15412
1.14579
1.13788
1.13039
1.12333
1.11669
1.11046
1.10463
1.09917
1.09408
1.08935
1.08497
1.08094
1.07725
1.07389
1.07088
1.06821
1.06589
1.06391
1.0623
1.06104
1.06015
1.05964
1.05951
1.05977
1.06043
1.06151
1.063
1.06492
1.06729
1.07008
1.07311
1.07508
1.06996
1.05678
1.04189
1.02673
1.01153
0.996274
0.980945
0.965517
0.949965
0.934269
0.918409
0.902367
0.886123
0.86966
0.852959
0.836
0.818766
0.801237
0.783392
0.765211
0.74667
0.727747
0.708415
0.688645
0.668404
0.647648
0.626327
0.60437
0.581686
0.558141
0.53355
0.507642
0.480025
0.450134
0.417243
0.380911
1.17944
1.17076
1.16213
1.15371
1.1456
1.13785
1.13049
1.12353
1.11697
1.1108
1.10501
1.09959
1.09453
1.08983
1.08548
1.08147
1.07781
1.07449
1.07151
1.06889
1.06661
1.0647
1.06316
1.06198
1.0612
1.0608
1.06082
1.06124
1.0621
1.06339
1.06514
1.06736
1.07006
1.07323
1.07663
1.07869
1.07245
1.05899
1.0441
1.02904
1.01397
0.998855
0.983682
0.968419
0.953042
0.93753
0.921863
0.906021
0.889987
0.87374
0.857262
0.840535
0.823539
0.806254
0.788659
0.770733
0.752453
0.733795
0.714733
0.695237
0.675272
0.654796
0.633756
0.612082
0.589678
0.566409
0.542085
0.516431
0.489057
0.459396
0.426594
0.389025
1.17882
1.17353
1.16537
1.15722
1.1493
1.14169
1.13444
1.12754
1.12102
1.11487
1.10909
1.10366
1.09859
1.09387
1.08949
1.08546
1.08176
1.07842
1.07542
1.07277
1.07048
1.06856
1.06702
1.06586
1.0651
1.06475
1.06482
1.06533
1.0663
1.06774
1.06966
1.07209
1.07506
1.0786
1.08277
1.08698
1.07921
1.06354
1.04815
1.03302
1.01796
1.00289
0.987781
0.972591
0.957299
0.941885
0.926328
0.91061
0.89471
0.878611
0.862294
0.845739
0.828927
0.811838
0.79445
0.776743
0.758693
0.740277
0.721467
0.702235
0.682546
0.662361
0.641628
0.62028
0.598227
0.575341
0.551444
0.526281
0.499498
0.470601
0.438907
0.403522
1.16931
1.16833
1.16033
1.15237
1.14464
1.1372
1.13007
1.12329
1.11685
1.11077
1.10504
1.09966
1.09462
1.08992
1.08557
1.08155
1.07788
1.07456
1.07158
1.06896
1.06671
1.06483
1.06333
1.06224
1.06155
1.0613
1.06148
1.06213
1.06326
1.06489
1.06704
1.06975
1.07303
1.077
1.08225
1.09278
1.08803
1.06789
1.05223
1.03722
1.02229
1.00736
0.992367
0.977307
0.962153
0.946886
0.931488
0.915939
0.900221
0.884314
0.868201
0.851861
0.835275
0.818422
0.801281
0.78383
0.766045
0.747904
0.729379
0.710443
0.691064
0.671205
0.650821
0.629851
0.608219
0.585814
0.562483
0.538011
0.512104
0.484378
0.454338
0.420962
1.17198
1.16528
1.15748
1.14976
1.14227
1.13504
1.1281
1.12148
1.11519
1.10923
1.10361
1.09832
1.09338
1.08876
1.08449
1.08055
1.07695
1.0737
1.0708
1.06827
1.0661
1.06431
1.06292
1.06194
1.06139
1.06127
1.06163
1.06247
1.06382
1.0657
1.06815
1.07119
1.07484
1.07915
1.08417
1.08975
1.08814