/*--------------------------------*- C++ -*----------------------------------*\
| =========                 |                                                 |
| \\      /  F ield         | OpenFOAM: The Open Source CFD Toolbox           |
|  \\    /   O peration     | Version:  2312                                  |
|   \\  /    A nd           | Website:  www.openfoam.com                      |
|    \\/     M anipulation  |                                                 |
\*---------------------------------------------------------------------------*/
FoamFile
{
    version     2.0;
    format      ascii;
    arch        "LSB;label=32;scalar=64";
    class       volScalarField;
    location    "0.005";
    object      T;
}
// * * * * * * * * * * * * * * * * * * * * * * * * * * * * * * * * * * * * * //

dimensions      [0 0 0 1 0 0 0];

internalField   nonuniform List<scalar> 
195600
(
1.02699
1.06302
1.07953
1.08354
1.08031
1.07283
1.06272
1.05086
1.03779
1.02386
1.00933
0.994337
0.978989
0.963327
0.947319
0.9308
0.913123
0.891805
0.87467
0.863459
0.851361
0.839061
0.826612
0.814092
0.80158
0.789138
0.776822
0.76469
0.7528
0.741214
0.730001
0.719239
0.709006
0.699328
0.68995
0.679531
0.667774
0.653919
0.638103
0.62169
0.605241
0.588977
0.572968
0.557222
0.541732
0.526489
0.51148
0.496695
0.482122
0.46775
0.453568
0.439565
0.425724
0.411967
0.398377
0.384695
0.37106
0.357559
0.344171
0.330868
0.317621
0.304399
0.291176
0.277929
0.264644
0.251318
0.23797
0.22466
0.211514
0.198751
0.186583
0.174301
1.02442
1.06081
1.07809
1.08265
1.07978
1.07252
1.06253
1.05073
1.0377
1.0238
1.00928
0.994295
0.978953
0.963298
0.9473
0.930808
0.913289
0.893455
0.876961
0.864702
0.852207
0.839608
0.826964
0.814315
0.801714
0.78921
0.776852
0.764691
0.752782
0.741182
0.729961
0.719195
0.708965
0.699313
0.690042
0.68021
0.668483
0.654091
0.638064
0.621583
0.605128
0.588865
0.572852
0.5571
0.541602
0.526351
0.511334
0.496542
0.481962
0.467584
0.453396
0.439389
0.425551
0.411879
0.398216
0.384482
0.370862
0.357374
0.343994
0.33069
0.317435
0.304203
0.290968
0.277708
0.264408
0.251064
0.237693
0.224352
0.211165
0.19837
0.186323
0.17539
1.02704
1.06336
1.07949
1.0833
1.08005
1.0726
1.06251
1.05065
1.03758
1.02366
1.00912
0.994129
0.978779
0.96312
0.947131
0.930675
0.91335
0.894594
0.877871
0.864689
0.852041
0.839425
0.82678
0.814124
0.80151
0.788995
0.776628
0.764462
0.752551
0.740952
0.729733
0.718972
0.708759
0.699165
0.690091
0.680824
0.668983
0.654029
0.637736
0.62115
0.604661
0.588388
0.572369
0.556611
0.541109
0.525854
0.510833
0.496037
0.481454
0.467072
0.452881
0.438872
0.425036
0.411395
0.397674
0.383919
0.370308
0.356827
0.343449
0.330144
0.316883
0.303641
0.290393
0.277117
0.263796
0.250426
0.237017
0.22362
0.210354
0.197474
0.18551
0.175739
1.0314
1.0673
1.08155
1.08418
1.08032
1.07254
1.06227
1.05032
1.03718
1.02321
1.00864
0.993626
0.978262
0.962597
0.946617
0.930212
0.913097
0.895096
0.878169
0.864363
0.851574
0.838943
0.826292
0.813626
0.801
0.788473
0.7761
0.763931
0.752021
0.740427
0.729213
0.718463
0.708275
0.698762
0.689959
0.681369
0.669436
0.653733
0.637041
0.620308
0.603771
0.587484
0.571462
0.555704
0.540202
0.524947
0.509928
0.495132
0.480548
0.466166
0.451974
0.437963
0.424129
0.410492
0.396735
0.382974
0.369368
0.355892
0.342516
0.329209
0.315942
0.302688
0.289424
0.276128
0.262781
0.249374
0.235913
0.222435
0.209046
0.195999
0.183927
0.174596
1.03813
1.07274
1.08424
1.08526
1.08055
1.07232
1.06179
1.04967
1.03643
1.02239
1.00777
0.992725
0.977338
0.961664
0.945696
0.929351
0.912446
0.894989
0.877859
0.863677
0.850788
0.838137
0.82547
0.812783
0.800138
0.787597
0.775217
0.763047
0.751141
0.739554
0.72835
0.717615
0.707458
0.698041
0.689576
0.681915
0.669909
0.653139
0.635926
0.619011
0.602414
0.58611
0.570084
0.554328
0.53883
0.52358
0.508565
0.493774
0.479195
0.464816
0.450625
0.436616
0.422783
0.409144
0.395386
0.381627
0.368018
0.35454
0.341163
0.327851
0.314574
0.301307
0.288025
0.274704
0.261325
0.247873
0.234345
0.220763
0.207204
0.193887
0.181423
0.171659
1.04827
1.07969
1.08746
1.08645
1.08067
1.07185
1.06097
1.04863
1.03524
1.02111
1.00643
0.991333
0.975917
0.960231
0.944277
0.928002
0.911301
0.894263
0.876933
0.862582
0.849645
0.836968
0.824266
0.811543
0.798867
0.786307
0.773916
0.761746
0.749846
0.73827
0.727082
0.716366
0.706244
0.696929
0.688848
0.682559
0.670503
0.652143
0.634319
0.617208
0.600546
0.584221
0.568192
0.55244
0.53695
0.521709
0.506704
0.491923
0.477353
0.462982
0.448798
0.434793
0.420963
0.407326
0.393618
0.379856
0.366232
0.352747
0.339365
0.326045
0.312755
0.299472
0.286168
0.272819
0.259404
0.2459
0.232294
0.218585
0.204811
0.191114
0.177942
0.16687
1.06345
1.08806
1.09105
1.08767
1.08064
1.07109
1.05979
1.04718
1.03361
1.01935
1.00459
0.989434
0.973983
0.958283
0.942346
0.926145
0.909641
0.892955
0.875371
0.861044
0.848117
0.835414
0.822665
0.809895
0.797183
0.784601
0.772202
0.760034
0.748144
0.736585
0.725417
0.714724
0.704637
0.695411
0.687708
0.68351
0.67138
0.650605
0.63217
0.614872
0.598143
0.581799
0.565772
0.550033
0.534559
0.519335
0.504347
0.489582
0.475027
0.460671
0.446499
0.432503
0.418676
0.40503
0.391371
0.37764
0.36404
0.350556
0.337157
0.323816
0.310504
0.297196
0.283865
0.270483
0.257024
0.24346
0.229764
0.215911
0.201885
0.187717
0.173541
0.160174
1.08546
1.09621
1.0938
1.08816
1.07996
1.06977
1.0581
1.04525
1.03151
1.01715
1.00231
0.987109
0.971632
0.955927
0.940015
0.923895
0.907584
0.891215
0.875833
0.861519
0.847817
0.834477
0.821305
0.808273
0.795407
0.782737
0.770293
0.758107
0.746218
0.73467
0.723521
0.71285
0.70279
0.693616
0.686152
0.685207
0.672717
0.648234
0.629476
0.61209
0.595339
0.579003
0.562999
0.547282
0.531831
0.516627
0.501659
0.486912
0.472373
0.458031
0.443871
0.429882
0.416055
0.402374
0.388726
0.375063
0.361505
0.348024
0.334607
0.321239
0.307899
0.294559
0.281191
0.267768
0.254258
0.240628
0.226837
0.212832
0.198536
0.183826
0.168429
0.151381
1.11949
1.10473
1.09687
1.0889
1.0795
1.0686
1.05644
1.04328
1.02938
1.01489
0.999959
0.984697
0.969181
0.953462
0.937569
0.921523
0.905392
0.889506
0.876229
0.861713
0.847204
0.833207
0.819623
0.806357
0.793366
0.780637
0.768172
0.755991
0.744121
0.732601
0.721482
0.71084
0.700803
0.691627
0.683977
0.679527
0.666735
0.64543
0.626848
0.609474
0.592732
0.576411
0.560423
0.544722
0.529284
0.514093
0.499136
0.4844
0.469871
0.455536
0.441382
0.427395
0.413561
0.399856
0.386203
0.372572
0.359022
0.345544
0.332122
0.318743
0.305383
0.292018
0.278619
0.265159
0.251602
0.237911
0.224031
0.209884
0.195338
0.180132
0.163713
0.144504
1.14537
1.11438
1.10117
1.09058
1.07971
1.06791
1.05513
1.04159
1.02744
1.01278
0.99772
0.982369
0.966796
0.951051
0.935168
0.919186
0.903212
0.88762
0.873807
0.859366
0.844961
0.830978
0.817383
0.804109
0.79112
0.778402
0.765959
0.753805
0.741967
0.73048
0.719391
0.708769
0.698728
0.689478
0.681422
0.674725
0.661744
0.642425
0.62418
0.606867
0.590141
0.573833
0.557857
0.542171
0.526748
0.511573
0.496633
0.481913
0.467399
0.453077
0.438934
0.424954
0.41112
0.397407
0.38376
0.370155
0.356622
0.343154
0.329737
0.316354
0.302985
0.289605
0.276186
0.262697
0.249104
0.235362
0.221408
0.207144
0.1924
0.176847
0.159838
0.140091
1.16072
1.12301
1.10523
1.09221
1.07995
1.0673
1.054
1.04011
1.02572
1.01088
0.995713
0.980289
0.964674
0.948916
0.933056
0.917147
0.901315
0.88591
0.871758
0.857353
0.843028
0.829067
0.815473
0.8022
0.789218
0.776516
0.764096
0.751971
0.740165
0.728709
0.717645
0.707033
0.69697
0.687603
0.679113
0.671038
0.657929
0.639765
0.621868
0.604647
0.587948
0.571651
0.555684
0.540005
0.524591
0.509424
0.494491
0.479778
0.465269
0.450951
0.436809
0.422827
0.408986
0.39526
0.38161
0.368016
0.354489
0.341021
0.327598
0.314203
0.300817
0.287413
0.273965
0.260442
0.246806
0.233011
0.218987
0.204625
0.189733
0.173954
0.156603
0.136433
1.17448
1.13094
1.10942
1.09415
1.08053
1.06704
1.05319
1.03893
1.02427
1.00925
0.993955
0.978442
0.962772
0.946991
0.931142
0.91529
0.899567
0.884274
0.869896
0.855492
0.841216
0.82727
0.813673
0.800396
0.787415
0.774721
0.762315
0.75021
0.738424
0.726988
0.715935
0.705318
0.69521
0.685694
0.676807
0.667989
0.654794
0.637169
0.619574
0.602464
0.585804
0.569522
0.553564
0.537896
0.522492
0.507336
0.492414
0.477709
0.463208
0.448896
0.434758
0.420776
0.406933
0.393202
0.379553
0.365969
0.352448
0.338982
0.325557
0.312155
0.298756
0.285336
0.271868
0.25832
0.244656
0.230826
0.216761
0.20235
0.1874
0.171569
0.154233
0.134396
1.18214
1.1376
1.11312
1.09579
1.08083
1.06645
1.05203
1.03737
1.02243
1.00721
0.991783
0.976182
0.96046
0.94466
0.928828
0.913032
0.897402
0.882184
0.867667
0.853263
0.83903
0.825108
0.811522
0.798253
0.785286
0.772611
0.76023
0.748153
0.736398
0.724987
0.713952
0.703332
0.693175
0.683516
0.674313
0.665389
0.652045
0.634474
0.617191
0.600254
0.583695
0.567481
0.551575
0.535949
0.520581
0.505457
0.490561
0.475879
0.461398
0.447103
0.432977
0.419006
0.405169
0.391442
0.377801
0.364227
0.350715
0.337254
0.323829
0.310423
0.297015
0.283581
0.270095
0.256527
0.24284
0.228986
0.214901
0.200478
0.185546
0.169806
0.15275
0.133579
1.18869
1.14389
1.11721
1.09809
1.08186
1.06663
1.05162
1.03655
1.02132
1.0059
0.990323
0.974624
0.95884
0.943011
0.927184
0.911428
0.895864
0.88069
0.866078
0.851662
0.837453
0.823547
0.809966
0.796703
0.783743
0.771081
0.758717
0.74666
0.734924
0.723529
0.712497
0.701857
0.691634
0.681818
0.672281
0.662433
0.648926
0.632158
0.615165
0.598387
0.58192
0.565766
0.549903
0.534309
0.518967
0.503862
0.488982
0.474313
0.459841
0.445553
0.431432
0.417462
0.403624
0.389895
0.376254
0.362683
0.349172
0.335709
0.322278
0.308862
0.295441
0.281992
0.268487
0.2549
0.241195
0.227329
0.213244
0.198851
0.184011
0.168496
0.151955
0.133919
1.19444
1.14923
1.12096
1.10029
1.08291
1.06685
1.05125
1.03576
1.02022
1.00459
0.988862
0.973055
0.957202
0.941337
0.925506
0.909776
0.894258
0.879108
0.864431
0.849998
0.835802
0.821906
0.80833
0.79507
0.782118
0.769468
0.75712
0.745081
0.733363
0.721979
0.710946
0.70028
0.689983
0.680012
0.670179
0.659778
0.646245
0.629869
0.613063
0.596387
0.579979
0.563859
0.548021
0.532448
0.517126
0.50204
0.487178
0.472527
0.458073
0.4438
0.429694
0.415736
0.401909
0.388192
0.374563
0.361007
0.34751
0.334059
0.320637
0.307228
0.29381
0.280362
0.266858
0.253272
0.239572
0.225722
0.211675
0.197367
0.182701
0.167538
0.151724
0.135743
1.1947
1.15275
1.12359
1.10176
1.08345
1.06672
1.05066
1.03485
1.01909
1.00331
0.987482
0.971618
0.955739
0.939878
0.924078
0.908404
0.892952
0.877846
0.863154
0.848734
0.834573
0.82071
0.807163
0.793932
0.78101
0.768393
0.756082
0.74408
0.732396
0.721039
0.710017
0.699334
0.688976
0.678875
0.668836
0.658234
0.644654
0.628343
0.611638
0.595035
0.578667
0.56257
0.546743
0.531177
0.515861
0.500781
0.485925
0.471278
0.456828
0.442559
0.428454
0.414498
0.40067
0.386952
0.373323
0.359767
0.34627
0.332817
0.319391
0.305973
0.292545
0.279084
0.265567
0.251968
0.238261
0.224417
0.210402
0.196178
0.181701
0.166909
0.151675
0.135536
1.19832
1.15628
1.12657
1.10381
1.08468
1.06732
1.05081
1.03466
1.01867
1.00272
0.986771
0.970827
0.954902
0.939021
0.923227
0.907579
0.892163
0.877076
0.862363
0.847939
0.833789
0.819939
0.806403
0.793184
0.780276
0.767676
0.755384
0.743402
0.731736
0.72039
0.709366
0.698655
0.688228
0.678007
0.667832
0.657363
0.643713
0.627132
0.610448
0.593886
0.577542
0.561454
0.545629
0.530062
0.514743
0.499661
0.484804
0.470157
0.455706
0.441436
0.42733
0.413371
0.399542
0.385822
0.372193
0.358638
0.345142
0.331688
0.318259
0.304839
0.291405
0.277938
0.264416
0.250814
0.237111
0.223285
0.209317
0.195198
0.180935
0.16656
0.152079
0.136872
1.19813
1.15842
1.12837
1.1048
1.08488
1.06688
1.04988
1.03338
1.01713
1.00099
0.984916
0.968887
0.952913
0.937015
0.921229
0.90561
0.89023
0.875167
0.860454
0.846039
0.831911
0.818086
0.804575
0.791381
0.7785
0.765931
0.753672
0.741725
0.730091
0.718772
0.707764
0.697053
0.686602
0.676329
0.66613
0.656346
0.642756
0.625616
0.609021
0.592572
0.576321
0.560307
0.544543
0.529027
0.513753
0.49871
0.483886
0.469268
0.454843
0.440595
0.426509
0.412568
0.398753
0.385047
0.371431
0.357888
0.344402
0.330955
0.317532
0.304113
0.29068
0.27721
0.263684
0.25008
0.23638
0.222568
0.20864
0.194612
0.180543
0.166573
0.153028
0.140872
1.19974
1.16102
1.13083
1.10663
1.08603
1.06745
1.05
1.03315
1.01664
1.00031
0.984099
0.967979
0.951949
0.936024
0.920237
0.904635
0.889279
0.874232
0.859518
0.845109
0.830996
0.817189
0.803697
0.790522
0.777663
0.765117
0.752884
0.740962
0.729353
0.718052
0.707053
0.696334
0.685855
0.675533
0.66524
0.654719
0.641141
0.624754
0.60829
0.591928
0.575747
0.559787
0.544066
0.528583
0.513334
0.498311
0.483502
0.468896
0.454478
0.440236
0.426153
0.412212
0.398397
0.384689
0.37107
0.357524
0.344033
0.330581
0.31715
0.303722
0.290278
0.276796
0.263258
0.249644
0.235938
0.222131
0.208229
0.194268
0.180343
0.16668
0.153787
0.142839
1.20199
1.16343
1.13322
1.10852
1.08731
1.06819
1.05028
1.03308
1.01629
0.999755
0.98339
0.967157
0.95105
0.935078
0.919267
0.90366
0.888307
0.873258
0.858535
0.844121
0.83001
0.816211
0.802728
0.789566
0.776722
0.764194
0.751981
0.740081
0.728491
0.717206
0.706211
0.695483
0.684974
0.674601
0.664209
0.653318
0.639667
0.623544
0.607128
0.590796
0.574644
0.55871
0.543012
0.527551
0.512322
0.497319
0.48253
0.467944
0.453546
0.439323
0.425259
0.411338
0.397541
0.383852
0.370253
0.356727
0.343255
0.329822
0.31641
0.303
0.289572
0.276109
0.262589
0.248995
0.235314
0.22154
0.207684
0.193793
0.17998
0.166502
0.153928
0.143676
1.19931
1.16413
1.13429
1.10939
1.08783
1.06835
1.05015
1.03273
1.01578
0.999131
0.982698
0.966432
0.950318
0.934362
0.918587
0.903026
0.887724
0.872721
0.858035
0.84366
0.829592
0.815837
0.802399
0.789281
0.776482
0.764
0.751832
0.739975
0.728424
0.71717
0.706197
0.695476
0.684957
0.674559
0.664144
0.653249
0.639492
0.623279
0.606836
0.590505
0.574361
0.558436
0.542744
0.527289
0.512067
0.497069
0.482286
0.467706
0.453314
0.439097
0.425038
0.411121
0.397329
0.383644
0.370049
0.356526
0.343058
0.329627
0.316215
0.302805
0.289376
0.275909
0.262387
0.248791
0.235108
0.221334
0.207482
0.193597
0.179791
0.166295
0.153569
0.142391
1.20116
1.16585
1.13638
1.11137
1.08951
1.06972
1.05124
1.03359
1.01647
0.999692
0.983166
0.966838
0.950688
0.934716
0.918941
0.903392
0.888106
0.873116
0.858439
0.844073
0.830017
0.816276
0.802854
0.789752
0.77697
0.764506
0.752357
0.740517
0.728981
0.717735
0.706762
0.696029
0.685487
0.675062
0.664674
0.654156
0.640222
0.623525
0.606973
0.590605
0.574438
0.558495
0.542787
0.527317
0.512081
0.497072
0.482279
0.46769
0.453291
0.439067
0.425004
0.411083
0.397288
0.383601
0.370004
0.356481
0.343013
0.329583
0.316173
0.302764
0.289336
0.275872
0.262351
0.248757
0.235076
0.221302
0.207441
0.19353
0.179652
0.165981
0.152831
0.14073
1.19869
1.16559
1.13648
1.11137
1.08923
1.06912
1.05034
1.03245
1.01514
0.998219
0.981594
0.965201
0.949015
0.933032
0.917265
0.901738
0.88648
0.871519
0.85687
0.842534
0.828513
0.81481
0.801428
0.78837
0.775634
0.763218
0.751119
0.739332
0.727847
0.716653
0.705729
0.695042
0.684546
0.674179
0.66393
0.654497
0.640883
0.623373
0.606818
0.590503
0.574394
0.558505
0.542847
0.527423
0.512229
0.497258
0.482499
0.467942
0.453572
0.439374
0.425334
0.411434
0.397659
0.38399
0.37041
0.356901
0.343446
0.330027
0.316625
0.303222
0.2898
0.276338
0.262818
0.249222
0.235533
0.221742
0.207846
0.193863
0.179837
0.165859
0.15207
0.138638
1.1993
1.16642
1.13763
1.11249
1.09014
1.06976
1.05073
1.03262
1.01513
0.99808
0.981359
0.964904
0.948682
0.932686
0.916924
0.901414
0.886181
0.871246
0.856623
0.842315
0.828326
0.814657
0.801313
0.788294
0.775599
0.763227
0.751173
0.739432
0.727994
0.716846
0.705965
0.695321
0.684869
0.674552
0.664309
0.654003
0.640657
0.62415
0.607694
0.591413
0.575333
0.559472
0.543838
0.528434
0.513255
0.498296
0.483546
0.468994
0.454626
0.440429
0.426387
0.412484
0.398704
0.385029
0.371441
0.357924
0.34446
0.33103
0.317617
0.304202
0.290765
0.277288
0.263752
0.250136
0.236422
0.222594
0.208637
0.194546
0.180319
0.165962
0.151454
0.136652
1.20074
1.16761
1.13912
1.11396
1.09141
1.07077
1.05148
1.03313
1.01543
0.998218
0.981368
0.964815
0.948524
0.932481
0.916691
0.901167
0.885928
0.870992
0.856372
0.842071
0.828092
0.81444
0.801115
0.788121
0.775454
0.763114
0.751096
0.739393
0.727994
0.716885
0.706043
0.695436
0.68502
0.674736
0.664474
0.653772
0.640235
0.624049
0.607618
0.591333
0.575257
0.559407
0.543788
0.5284
0.513241
0.498302
0.483573
0.469043
0.454699
0.440526
0.426509
0.412631
0.398876
0.385228
0.371667
0.358178
0.344742
0.331341
0.317957
0.304572
0.291166
0.277719
0.264213
0.250626
0.236937
0.223121
0.209153
0.195
0.180618
0.165933
0.150826
0.135262
1.19745
1.16719
1.13932
1.11438
1.09185
1.07114
1.05175
1.0333
1.01554
0.998279
0.981407
0.964854
0.948581
0.932572
0.916827
0.901356
0.886173
0.871295
0.856731
0.842487
0.828566
0.814972
0.801707
0.788772
0.776166
0.763886
0.751929
0.740287
0.728949
0.717899
0.707114
0.696562
0.686203
0.67598
0.66579
0.655146
0.641393
0.62507
0.608575
0.592262
0.576173
0.560317
0.544698
0.529313
0.514159
0.499226
0.484505
0.469984
0.455649
0.441485
0.427478
0.413611
0.399866
0.386228
0.372677
0.359198
0.345771
0.332379
0.319003
0.305626
0.292227
0.278788
0.265287
0.251703
0.23801
0.224179
0.210172
0.195934
0.181379
0.166362
0.150612
0.133567
1.199
1.16859
1.14126
1.11655
1.09405
1.07327
1.05379
1.03524
1.01739
1.00006
0.983135
0.966547
0.950253
0.934237
0.918495
0.903033
0.887863
0.872999
0.858449
0.844219
0.830314
0.816736
0.803489
0.790572
0.777987
0.765729
0.753794
0.742176
0.730862
0.719835
0.709074
0.698548
0.688217
0.678037
0.667977
0.657886
0.643797
0.626826
0.610156
0.593765
0.577623
0.561725
0.54607
0.530656
0.515476
0.500522
0.485783
0.471247
0.4569
0.442727
0.428712
0.414839
0.401091
0.38745
0.3739
0.360421
0.346997
0.33361
0.32024
0.306869
0.293479
0.280049
0.266558
0.252984
0.239299
0.225468
0.211443
0.197152
0.18248
0.167236
0.151097
0.133563
1.19512
1.16701
1.14014
1.11563
1.09316
1.07233
1.05275
1.03411
1.01617
0.998769
0.981799
0.965186
0.948887
0.932881
0.917163
0.901735
0.886606
0.871787
0.857286
0.843108
0.829258
0.815739
0.802554
0.789703
0.777187
0.765002
0.753144
0.741606
0.730377
0.71944
0.708774
0.69835
0.688135
0.678095
0.66829
0.659707
0.646239
0.628185
0.611466
0.595098
0.578986
0.563122
0.547502
0.532122
0.516976
0.502055
0.487347
0.47284
0.458521
0.444374
0.430383
0.416533
0.402806
0.389186
0.375653
0.362192
0.348783
0.335409
0.322052
0.308692
0.295312
0.281892
0.26841
0.254844
0.241165
0.227335
0.213301
0.198981
0.184243
0.168874
0.152518
0.134622
1.19555
1.16687
1.14042
1.11613
1.09374
1.07289
1.05325
1.03454
1.01654
0.999094
0.982094
0.965467
0.949172
0.933184
0.917494
0.902105
0.88702
0.87225
0.8578
0.843677
0.829883
0.816424
0.803301
0.790515
0.778067
0.765953
0.75417
0.74271
0.731563
0.720712
0.710139
0.699816
0.689713
0.679794
0.670033
0.66033
0.647441
0.630768
0.614171
0.597813
0.581701
0.565837
0.550218
0.534839
0.519693
0.50477
0.490059
0.475547
0.461221
0.447066
0.433066
0.419205
0.405466
0.391832
0.378286
0.364809
0.351385
0.337994
0.32462
0.311243
0.297845
0.284409
0.270912
0.257332
0.243642
0.229804
0.215765
0.201439
0.186697
0.171325
0.154985
0.137101
1.19659
1.16754
1.14141
1.1173
1.09494
1.07405
1.05431
1.03549
1.01738
0.999843
0.982763
0.966076
0.949736
0.93372
0.918015
0.90262
0.88754
0.87278
0.858347
0.844245
0.830479
0.817052
0.803967
0.791224
0.778824
0.766764
0.75504
0.743645
0.732567
0.721793
0.711302
0.701068
0.691062
0.681239
0.671495
0.661306
0.648069
0.631827
0.615278
0.598911
0.582795
0.566935
0.551326
0.535962
0.520834
0.505932
0.491245
0.47676
0.462462
0.448336
0.434367
0.420539
0.406833
0.393235
0.379724
0.366285
0.352898
0.339547
0.326212
0.312877
0.299524
0.286133
0.272686
0.259162
0.245535
0.231772
0.217823
0.203614
0.189026
0.173875
0.157919
0.141003
1.19341
1.16672
1.14125
1.11752
1.09539
1.07461
1.05495
1.03616
1.01809
1.00057
0.983531
0.966887
0.950599
0.934641
0.919
0.903674
0.888666
0.873979
0.859619
0.845592
0.831901
0.81855
0.805542
0.792879
0.78056
0.768584
0.756947
0.745642
0.73466
0.723984
0.713598
0.703476
0.69359
0.683899
0.674298
0.664203
0.650619
0.6342
0.617576
0.601176
0.585043
0.569175
0.553565
0.538205
0.523084
0.508193
0.493518
0.479046
0.464763
0.450654
0.436702
0.422891
0.409203
0.395622
0.382129
0.368707
0.355338
0.342003
0.328685
0.315366
0.302029
0.288656
0.27523
0.261732
0.24814
0.234428
0.220557
0.206466
0.192058
0.177182
0.161618
0.145069
1.19488
1.16847
1.14354
1.12016
1.09824
1.07757
1.05795
1.03919
1.02111
1.00359
0.986541
0.969896
0.953612
0.937662
0.922034
0.906723
0.891732
0.877063
0.862721
0.848713
0.835042
0.821713
0.808728
0.79609
0.783799
0.771855
0.760253
0.748987
0.738049
0.727425
0.717097
0.707042
0.697235
0.687651
0.678277
0.66893
0.654823
0.637561
0.620706
0.604205
0.588004
0.57208
0.556423
0.541022
0.525868
0.510948
0.49625
0.481759
0.467461
0.45334
0.43938
0.425563
0.411873
0.398292
0.384801
0.371383
0.358019
0.344692
0.331384
0.318077
0.304753
0.291398
0.277994
0.264526
0.250979
0.237333
0.223566
0.209638
0.195484
0.180991
0.165999
0.15064
1.18962
1.16596
1.1415
1.11845
1.09674
1.0762
1.05665
1.03793
1.01988
1.00238
0.985361
0.968749
0.952506
0.936605
0.921033
0.905785
0.890861
0.876264
0.861998
0.848068
0.834479
0.821235
0.80834
0.795795
0.783603
0.771762
0.76027
0.749122
0.738308
0.727818
0.717636
0.707741
0.698113
0.688739
0.679744
0.67244
0.659287
0.64059
0.62364
0.607147
0.590961
0.575055
0.559419
0.544041
0.528912
0.514017
0.499344
0.484879
0.470606
0.456509
0.442573
0.428779
0.415111
0.401551
0.38808
0.374681
0.361335
0.348024
0.334731
0.321437
0.308128
0.294787
0.2814
0.267956
0.254445
0.240859
0.227193
0.213437
0.19957
0.185514
0.171013
0.155249
1.19025
1.16511
1.14111
1.11843
1.09697
1.07659
1.05716
1.03851
1.02052
1.00307
0.986104
0.969547
0.953363
0.937528
0.922027
0.906854
0.892008
0.877493
0.863311
0.849467
0.835967
0.822815
0.810013
0.797566
0.785475
0.77374
0.762358
0.751327
0.740638
0.730283
0.720246
0.710511
0.701058
0.691866
0.682927
0.674151
0.661932
0.645134
0.628368
0.611876
0.59567
0.579742
0.564086
0.54869
0.533542
0.51863
0.50394
0.489457
0.475166
0.461051
0.447095
0.433282
0.419593
0.406012
0.392519
0.379097
0.365728
0.352393
0.339075
0.325757
0.312422
0.299057
0.285649
0.27219
0.258678
0.245114
0.231516
0.217908
0.204331
0.190809
0.177195
0.162222
1.19083
1.16544
1.14179
1.11938
1.09809
1.07782
1.05842
1.03979
1.02179
1.00433
0.98735
0.970784
0.954599
0.938769
0.923281
0.908129
0.89331
0.878827
0.864684
0.850884
0.837433
0.824336
0.811596
0.799216
0.787199
0.775546
0.764254
0.753321
0.74274
0.732503
0.722597
0.713005
0.703707
0.694665
0.685759
0.676357
0.663613
0.647397
0.630726
0.614239
0.598032
0.582111
0.566467
0.551089
0.535964
0.521079
0.506418
0.491968
0.477713
0.463635
0.449719
0.435948
0.422302
0.408766
0.395319
0.381944
0.368623
0.355337
0.342068
0.328799
0.315515
0.302201
0.288847
0.275447
0.262003
0.248529
0.235059
0.221655
0.208433
0.195598
0.183612
0.174085
1.18825
1.1645
1.14153
1.11958
1.09863
1.07861
1.05941
1.04092
1.02304
1.00569
0.988802
0.972329
0.956236
0.940498
0.925103
0.910043
0.895318
0.88093
0.866882
0.853178
0.839825
0.826827
0.814188
0.801914
0.790006
0.778467
0.767296
0.756491
0.746047
0.735956
0.726208
0.716787
0.707676
0.698838
0.690144
0.680867
0.667636
0.651194
0.634444
0.617928
0.601711
0.58579
0.570153
0.554786
0.539677
0.52481
0.510171
0.495745
0.481514
0.467463
0.453574
0.43983
0.426213
0.412704
0.399285
0.385937
0.372642
0.35938
0.346133
0.332885
0.319618
0.30632
0.292979
0.279592
0.266164
0.252716
0.239296
0.225994
0.212979
0.200563
0.189363
0.180581
1.18951
1.1668
1.14441
1.12287
1.10223
1.08242
1.06337
1.04498
1.02718
1.00989
0.993052
0.976618
0.960558
0.944852
0.929487
0.914457
0.89976
0.8854
0.871379
0.857704
0.84438
0.831414
0.818809
0.806572
0.794707
0.783216
0.7721
0.761358
0.750987
0.740981
0.731331
0.722024
0.713046
0.704384
0.696037
0.687754
0.673798
0.656267
0.639214
0.622579
0.606286
0.590304
0.574615
0.559206
0.54406
0.529164
0.514501
0.500055
0.48581
0.471748
0.457853
0.444107
0.43049
0.416984
0.403572
0.390232
0.376946
0.363695
0.35046
0.337223
0.323967
0.310676
0.297341
0.283956
0.270527
0.257076
0.243654
0.230362
0.217382
0.205047
0.193961
0.185282
1.18272
1.16348
1.14153
1.1204
1.10009
1.08054
1.0617
1.04348
1.02581
1.00864
0.991908
0.975577
0.959619
0.944015
0.928752
0.913826
0.899235
0.884983
0.871073
0.85751
0.844302
0.831453
0.818972
0.806862
0.795129
0.783777
0.772808
0.762223
0.75202
0.742196
0.732744
0.723655
0.714919
0.706545
0.698731
0.693199
0.680564
0.661112
0.643905
0.627265
0.610977
0.595003
0.579325
0.56393
0.548801
0.533924
0.519281
0.504857
0.490634
0.476596
0.462725
0.449002
0.435409
0.421928
0.408538
0.39522
0.381955
0.368724
0.355505
0.342281
0.329033
0.315746
0.302405
0.289004
0.275544
0.262043
0.248547
0.235145
0.221999
0.20939
0.197754
0.187613
1.18385
1.16199
1.14057
1.11989
1.09995
1.0807
1.0621
1.04408
1.02659
1.00957
0.992984
0.976786
0.960957
0.945478
0.93034
0.915538
0.901071
0.886943
0.873158
0.85972
0.846639
0.833919
0.821568
0.809593
0.797999
0.786791
0.775974
0.765549
0.755517
0.745878
0.736626
0.727757
0.719261
0.711128
0.703365
0.695875
0.684571
0.667723
0.650803
0.634167
0.617844
0.601831
0.586116
0.570686
0.555524
0.540615
0.525942
0.511488
0.497237
0.483171
0.469272
0.455522
0.441902
0.428393
0.414975
0.401629
0.388336
0.375074
0.361823
0.348564
0.335276
0.321942
0.308544
0.295072
0.281519
0.267893
0.254222
0.240567
0.227045
0.213856
0.201302
0.189686
1.18366
1.16203
1.14097
1.12063
1.10095
1.08191
1.06346
1.04556
1.02816
1.01121
0.994678
0.978535
0.962758
0.947332
0.932249
0.917504
0.903099
0.889035
0.875318
0.861954
0.84895
0.836314
0.824053
0.812175
0.800686
0.789592
0.778898
0.768609
0.758726
0.749249
0.740178
0.731508
0.723227
0.7153
0.707571
0.699268
0.687252
0.671185
0.654428
0.637817
0.621505
0.605509
0.589818
0.574417
0.55929
0.544419
0.529788
0.51538
0.501177
0.487161
0.473315
0.45962
0.446057
0.432606
0.419248
0.405963
0.392731
0.37953
0.366339
0.353138
0.339903
0.326614
0.313251
0.299795
0.28623
0.272548
0.258751
0.244859
0.230925
0.217049
0.203453
0.190791
1.18213
1.16106
1.14072
1.12091
1.10164
1.08294
1.06476
1.04709
1.02988
1.01311
0.996733
0.980734
0.965093
0.949798
0.934842
0.920222
0.905939
0.891998
0.878403
0.865163
0.852285
0.839777
0.827647
0.815905
0.804559
0.793615
0.78308
0.77296
0.76326
0.753981
0.745125
0.736689
0.728667
0.721026
0.713592
0.705449
0.692814
0.676457
0.659602
0.642964
0.626653
0.610672
0.595004
0.579631
0.564535
0.5497
0.535106
0.520736
0.506574
0.492599
0.478795
0.465143
0.451622
0.438214
0.424898
0.411654
0.39846
0.385296
0.372139
0.358965
0.345751
0.332473
0.319105
0.305621
0.291993
0.278195
0.264199
0.249976
0.2355
0.220737
0.205628
0.189932
1.18272
1.16387
1.14423
1.12488
1.10598
1.08756
1.0696
1.05211
1.03504
1.01838
1.0021
0.986182
0.97061
0.955376
0.940475
0.925905
0.911671
0.897775
0.884226
0.87103
0.858198
0.845738
0.833661
0.821975
0.810691
0.799818
0.789364
0.779337
0.769742
0.760585
0.75187
0.743598
0.735773
0.728399
0.72148
0.714653
0.701108
0.683335
0.666057
0.64927
0.632878
0.616838
0.601124
0.585714
0.570589
0.555729
0.541117
0.526734
0.512564
0.498586
0.484782
0.471134
0.457622
0.444226
0.430925
0.417698
0.404523
0.391379
0.378241
0.365086
0.351887
0.338616
0.325243
0.311733
0.298047
0.284139
0.269949
0.255402
0.240392
0.224759
0.208265
0.19064
1.17405
1.15967
1.1405
1.12162
1.10313
1.08506
1.06742
1.05019
1.03336
1.01691
1.00082
0.98508
0.969679
0.95461
0.939869
0.925457
0.911377
0.897636
0.88424
0.871199
0.858522
0.84622
0.834303
0.822783
0.811669
0.800974
0.790707
0.780878
0.771495
0.762566
0.754099
0.7461
0.738583
0.731592
0.72543
0.722299
0.710525
0.690135
0.672584
0.655765
0.639373
0.623339
0.607633
0.592234
0.577122
0.562279
0.547685
0.533324
0.519176
0.505223
0.491446
0.477826
0.464343
0.450977
0.437707
0.424511
0.411368
0.398253
0.385143
0.372013
0.358833
0.345574
0.3322
0.318669
0.30493
0.290921
0.276555
0.261714
0.246226
0.229825
0.212055
0.191981
1.17614
1.15835
1.1397
1.12128
1.10319
1.08547
1.06813
1.05117
1.03458
1.01835
1.00246
0.986901
0.971673
0.956768
0.942186
0.927928
0.913999
0.900406
0.887156
0.87426
0.861728
0.849572
0.837802
0.826433
0.815475
0.804941
0.794842
0.785192
0.776
0.767279
0.759037
0.751287
0.744041
0.737323
0.731196
0.725604
0.715309
0.698113
0.680914
0.664103
0.647671
0.631591
0.61584
0.600398
0.585245
0.570362
0.555731
0.541333
0.527151
0.513166
0.499359
0.48571
0.472199
0.458807
0.445512
0.432293
0.419127
0.40599
0.392858
0.379705
0.3665
0.353211
0.339801
0.326222
0.312417
0.298309
0.283796
0.268733
0.252915
0.236036
0.217633
0.196953
1.17509
1.15827
1.13986
1.12176
1.10395
1.08647
1.06933
1.05253
1.03608
1.01997
1.0042
0.988742
0.973609
0.958794
0.944299
0.930127
0.916284
0.902778
0.889617
0.876812
0.864375
0.852318
0.840652
0.829393
0.818552
0.808144
0.798181
0.788679
0.779648
0.771103
0.763055
0.755518
0.748504
0.742006
0.735895
0.729294
0.71816
0.701967
0.685004
0.668253
0.651857
0.635816
0.620108
0.604712
0.589607
0.574775
0.560198
0.545856
0.531732
0.517807
0.504062
0.490477
0.477032
0.463708
0.450482
0.437333
0.424238
0.411174
0.398116
0.385036
0.371904
0.358688
0.345347
0.331832
0.318082
0.304015
0.289518
0.274436
0.25855
0.241549
0.223039
0.202779
1.17504
1.15739
1.13967
1.12205
1.10464
1.08749
1.07063
1.05408
1.03785
1.02194
1.00634
0.991047
0.976069
0.961403
0.947051
0.933019
0.919314
0.905944
0.89292
0.880252
0.867954
0.856038
0.844518
0.83341
0.822726
0.812484
0.802697
0.793382
0.784553
0.776225
0.768413
0.761133
0.754398
0.748201
0.742386
0.735887
0.724002
0.707579
0.690583
0.673857
0.657504
0.64151
0.625853
0.610509
0.595458
0.580681
0.566159
0.551874
0.537807
0.52394
0.510252
0.496726
0.48334
0.470074
0.456907
0.443816
0.430779
0.417773
0.40477
0.391746
0.378669
0.365505
0.352216
0.33875
0.325046
0.31102
0.296557
0.2815
0.265626
0.248622
0.230016
0.208924
1.17455
1.16051
1.14345
1.12626
1.10919
1.09233
1.07571
1.05936
1.0433
1.02752
1.01204
0.99686
0.981976