/*--------------------------------*- C++ -*----------------------------------*\
| =========                 |                                                 |
| \\      /  F ield         | OpenFOAM: The Open Source CFD Toolbox           |
|  \\    /   O peration     | Version:  2312                                  |
|   \\  /    A nd           | Website:  www.openfoam.com                      |
|    \\/     M anipulation  |                                                 |
\*---------------------------------------------------------------------------*/
FoamFile
{
    version     2.0;
    format      ascii;
    arch        "LSB;label=32;scalar=64";
    class       volScalarField;
    location    "0.03";
    object      T;
}
// * * * * * * * * * * * * * * * * * * * * * * * * * * * * * * * * * * * * * //

dimensions      [0 0 0 1 0 0 0];

internalField   nonuniform List<scalar> 
195600
(
1.02936
1.07163
1.09554
1.10779
1.11346
1.1154
1.11513
1.11345
1.11084
1.10763
1.10401
1.10009
1.09594
1.09155
1.08685
1.0816
1.07496
1.06391
1.05771
1.05868
1.0586
1.05825
1.05765
1.05685
1.05593
1.05495
1.05393
1.05294
1.05204
1.05129
1.05078
1.05059
1.05084
1.05155
1.05229
1.05094
1.04692
1.03899
1.0273
1.01398
0.999895
0.985404
0.970616
0.955553
0.940207
0.924567
0.908624
0.892365
0.87578
0.858861
0.8416
0.823988
0.806009
0.787523
0.768707
0.749075
0.72891
0.7084
0.687526
0.666253
0.644545
0.622363
0.599675
0.576464
0.552728
0.528496
0.503848
0.478964
0.454189
0.430095
0.407302
0.384542
1.02681
1.06945
1.09415
1.10698
1.11303
1.1152
1.11505
1.11344
1.11089
1.1077
1.1041
1.1002
1.09605
1.09168
1.087
1.08177
1.07533
1.06607
1.0607
1.06044
1.0599
1.05919
1.05835
1.05739
1.05637
1.0553
1.05423
1.0532
1.05227
1.0515
1.05097
1.05077
1.05103
1.05177
1.05267
1.05224
1.04828
1.03951
1.02748
1.01405
0.999947
0.985449
0.970646
0.955561
0.940191
0.924527
0.908558
0.892274
0.875666
0.858723
0.841439
0.823809
0.805822
0.787489
0.768523
0.748779
0.728633
0.708139
0.68727
0.665984
0.644251
0.622038
0.599316
0.576069
0.552292
0.528012
0.503305
0.478343
0.453465
0.42928
0.406716
0.386812
1.02947
1.07213
1.09573
1.10785
1.11354
1.11554
1.11531
1.11366
1.11109
1.10789
1.10428
1.10038
1.09623
1.09187
1.0872
1.08203
1.07583
1.06787
1.06227
1.06092
1.0602
1.05947
1.05863
1.05767
1.05663
1.05554
1.05446
1.05342
1.05248
1.05171
1.05117
1.05097
1.05124
1.05206
1.05326
1.0537
1.04958
1.03992
1.02746
1.01384
0.999664
0.985125
0.970288
0.95517
0.939766
0.924069
0.908066
0.891749
0.875107
0.858131
0.840814
0.82315
0.805142
0.786842
0.767738
0.747929
0.727776
0.707269
0.68638
0.665069
0.643301
0.621045
0.598275
0.574972
0.551131
0.526773
0.501963
0.476857
0.451777
0.427367
0.404914
0.387406
1.0339
1.07627
1.09808
1.10907
1.11419
1.1159
1.11552
1.11379
1.11117
1.10795
1.10432
1.1004
1.09626
1.0919
1.08725
1.08215
1.07622
1.06918
1.06336
1.06127
1.06039
1.05965
1.05881
1.05783
1.05677
1.05567
1.05457
1.05352
1.05257
1.05179
1.05124
1.05105
1.05133
1.05226
1.05387
1.05536
1.05109
1.04024
1.02712
1.01323
0.998943
0.984343
0.96946
0.954299
0.938853
0.923114
0.907069
0.890708
0.874022
0.857001
0.839637
0.821927
0.803878
0.785545
0.766329
0.746468
0.726282
0.705746
0.684822
0.663469
0.64165
0.619335
0.596498
0.573119
0.54919
0.524721
0.499764
0.474445
0.449052
0.424218
0.40143
0.384712
1.04074
1.08198
1.10116
1.11062
1.11495
1.11625
1.11565
1.11379
1.11108
1.10781
1.10416
1.10022
1.09607
1.09171
1.0871
1.08208
1.07641
1.07004
1.06399
1.06146
1.06047
1.05971
1.05885
1.05785
1.05675
1.05562
1.0545
1.05344
1.05248
1.05168
1.05113
1.05093
1.05123
1.05228
1.05439
1.05731
1.05293
1.04038
1.02639
1.01216
0.997724
0.983039
0.968092
0.952874
0.937374
0.921581
0.905483
0.889068
0.872327
0.855249
0.837827
0.820058
0.801951
0.783553
0.764277
0.744359
0.72411
0.703515
0.682534
0.661118
0.639228
0.616835
0.593911
0.570435
0.546392
0.521782
0.496635
0.471039
0.445216
0.419711
0.395945
0.378082
1.05102
1.0893
1.10489
1.11242
1.11576
1.11651
1.11561
1.11357
1.11074
1.1074
1.1037
1.09974
1.09558
1.09122
1.08664
1.08171
1.0763
1.07044
1.06417
1.06144
1.0604
1.05961
1.0587
1.05765
1.05651
1.05534
1.05419
1.0531
1.05212
1.05131
1.05075
1.05054
1.05086
1.05202
1.05469
1.05973
1.05528
1.04018
1.02517
1.01056
0.995945
0.98115
0.966119
0.950829
0.935262
0.919404
0.903241
0.886762
0.869956
0.852811
0.835321
0.81748
0.799298
0.780823
0.761566
0.741567
0.721215
0.700533
0.679471
0.657968
0.635987
0.613494
0.590463
0.566868
0.542688
0.517909
0.492533
0.4666
0.440236
0.413805
0.38835
0.367403
1.0664
1.09814
1.10912
1.1144
1.11657
1.11667
1.11539
1.11312
1.11014
1.10671
1.10295
1.09895
1.09477
1.09042
1.08587
1.08105
1.07587
1.07046
1.06388
1.06119
1.06016
1.05934
1.05837
1.05725
1.05605
1.05483
1.05364
1.05253
1.05153
1.05071
1.05013
1.04991
1.05023
1.05148
1.05468
1.06295
1.05841
1.03945
1.0234
1.0084
0.99358
0.978656
0.963532
0.948162
0.932522
0.916592
0.900358
0.883807
0.866927
0.849707
0.832137
0.814213
0.795936
0.777347
0.758089
0.738056
0.717659
0.696888
0.675705
0.654076
0.631967
0.609345
0.58618
0.56244
0.538095
0.513116
0.487476
0.461153
0.434153
0.406584
0.37878
0.352569
1.08868
1.10685
1.11263
1.11578
1.11689
1.11643
1.11484
1.11238
1.10928
1.10578
1.10198
1.09796
1.09378
1.08944
1.08494
1.08022
1.07529
1.07027
1.06638
1.06374
1.06179
1.06019
1.05869
1.05723
1.05581
1.05446
1.05319
1.05202
1.05098
1.05013
1.04953
1.04929
1.04959
1.05085
1.05436
1.06767
1.06261
1.03774
1.02108
1.00583
0.99086
0.975839
0.960634
0.945188
0.929468
0.913456
0.897137
0.880499
0.863529
0.846215
0.828549
0.810521
0.792127
0.773356
0.754003
0.73399
0.713568
0.6927
0.671378
0.649596
0.627331
0.60455
0.581219
0.557305
0.532768
0.507564
0.481634
0.454895
0.427212
0.398342
0.367707
0.333175
1.12306
1.11608
1.11663
1.11761
1.11763
1.11654
1.11454
1.11184
1.10864
1.10505
1.1012
1.09715
1.09296
1.08863
1.08417
1.07957
1.07487
1.07044
1.06914
1.06629
1.06336
1.06095
1.05893
1.05715
1.05556
1.0541
1.05277
1.05156
1.05051
1.04965
1.04904
1.04877
1.04904
1.05022
1.05335
1.06107
1.0553
1.0353
1.0188
1.00346
0.988401
0.973292
0.958002
0.942468
0.926656
0.910549
0.894134
0.877397
0.860327
0.842912
0.825139
0.806999
0.788478
0.769548
0.750075
0.730014
0.709501
0.688533
0.667102
0.645198
0.622799
0.599875
0.576393
0.552315
0.527597
0.502181
0.475978
0.448847
0.420525
0.390459
0.357439
0.317969
1.14927
1.1264
1.12182
1.12034
1.11902
1.11713
1.11458
1.11155
1.10815
1.10443
1.10048
1.09637
1.09215
1.08782
1.08339
1.07888
1.07438
1.07032
1.06837
1.0656
1.06279
1.06039
1.05833
1.05652
1.0549
1.05342
1.05208
1.05087
1.04981
1.04894
1.04831
1.048
1.04818
1.04917
1.05157
1.05565
1.04939
1.03239
1.0163
1.00095
0.985805
0.970603
0.955222
0.939598
0.923697
0.907503
0.891002
0.874179
0.857021
0.839515
0.82165
0.803411
0.78478
0.765724
0.746154
0.726042
0.70546
0.684414
0.662895
0.640893
0.618386
0.595346
0.571738
0.547523
0.522651
0.497051
0.470613
0.443148
0.414307
0.383381
0.348947
0.308159
1.16486
1.13563
1.1267
1.12295
1.12035
1.1177
1.11471
1.11139
1.10779
1.10395
1.09992
1.09577
1.09153
1.08721
1.08283
1.07842
1.0741
1.07028
1.06792
1.0652
1.06248
1.06009
1.05803
1.0562
1.05456
1.05308
1.05173
1.05052
1.04946
1.04858
1.04793
1.04757
1.04765
1.04837
1.05002
1.05183
1.04522
1.02991
1.01427
0.998964
0.983756
0.968469
0.952998
0.937283
0.921291
0.905005
0.888412
0.871495
0.854242
0.836638
0.818669
0.800322
0.781575
0.762394
0.742719
0.72253
0.701864
0.680726
0.659107
0.636995
0.614369
0.5912
0.567456
0.543094
0.51806
0.492276
0.465617
0.437866
0.408624
0.377116
0.34183
0.300003
1.17887
1.14413
1.13168
1.12585
1.12201
1.11862
1.11515
1.11152
1.10771
1.10372
1.0996
1.09539
1.09112
1.0868
1.08246
1.07813
1.07396
1.07027
1.06765
1.06492
1.06226
1.05987
1.05779
1.05593
1.05427
1.05276
1.0514
1.05017
1.04909
1.04819
1.04749
1.04705
1.04698
1.04739
1.04832
1.04887
1.042
1.02742
1.01215
0.996907
0.981657
0.966292
0.950731
0.934928
0.91885
0.902478
0.885797
0.868791
0.851447
0.833751
0.815687
0.79724
0.778388
0.759099
0.739331
0.719067
0.698323
0.677101
0.655392
0.633184
0.610455
0.587178
0.563319
0.538836
0.513674
0.487752
0.460941
0.433018
0.403581
0.371884
0.336556
0.295387
1.18673
1.15129
1.13611
1.12837
1.1233
1.11911
1.11513
1.11115
1.10709
1.10294
1.09871
1.09443
1.09012
1.0858
1.08148
1.07723
1.07316
1.06957
1.06676
1.06402
1.06139
1.05901
1.05691
1.05503
1.05335
1.05183
1.05045
1.0492
1.04811
1.04717
1.04643
1.04591
1.04568
1.04578
1.04611
1.0464
1.03918
1.02456
1.00968
0.994611
0.979424
0.96407
0.948497
0.932667
0.916553
0.900138
0.883407
0.866346
0.848942
0.831182
0.813049
0.794529
0.775598
0.75623
0.73639
0.716064
0.695256
0.673965
0.652182
0.629892
0.607075
0.583703
0.559745
0.535159
0.509891
0.483864
0.456953
0.428953
0.399499
0.367947
0.333178
0.29343
1.19347
1.15807
1.1409
1.13151
1.1253
1.12035
1.11586
1.11152
1.10722
1.1029
1.09856
1.09421
1.08986
1.08553
1.08124
1.07705
1.07307
1.06953
1.06661
1.06385
1.06124
1.05887
1.05675
1.05486
1.05316
1.05162
1.05023
1.04897
1.04785
1.04688
1.04608
1.04547
1.04506
1.04484
1.04456
1.04329
1.03568
1.02222
1.00769
0.992782
0.977649
0.962298
0.946702
0.930833
0.914669
0.898196
0.8814
0.86427
0.846793
0.828955
0.810742
0.792136
0.773117
0.75366
0.733739
0.713338
0.692456
0.671087
0.649221
0.626845
0.603936
0.58047
0.556416
0.531735
0.506377
0.480274
0.453318
0.425336
0.396038
0.364935
0.331259
0.293985
1.19939
1.16385
1.14529
1.13452
1.12727
1.12157
1.11656
1.11186
1.1073
1.1028
1.09833
1.09389
1.08948
1.08513
1.08084
1.07669
1.07278
1.06926
1.06625
1.06346
1.06085
1.05847
1.05633
1.05442
1.05269
1.05113
1.04971
1.04843
1.04728
1.04626
1.04539
1.04466
1.04406
1.04351
1.04268
1.04044
1.03267
1.01972
1.00538
0.990529
0.975387
0.959994
0.944341
0.92841
0.912183
0.895647
0.878789
0.861597
0.844058
0.826158
0.807881
0.789212
0.77013
0.750612
0.730636
0.710186
0.689257
0.667841
0.645927
0.623498
0.600536
0.577016
0.552909
0.528181
0.502789
0.476675
0.449761
0.421924
0.392972
0.362609
0.330508
0.297751
1.19978
1.16773
1.14848
1.1367
1.12862
1.12234
1.11693
1.11196
1.10722
1.1026
1.09806
1.09358
1.08918
1.08484
1.08061
1.07653
1.0727
1.06923
1.06621
1.06342
1.06083
1.05848
1.05637
1.05446
1.05275
1.0512
1.0498
1.04852
1.04738
1.04635
1.04544
1.04462
1.04386
1.04303
1.04181
1.03917
1.03124
1.0183
1.00403
0.989206
0.974044
0.958601
0.942883
0.926881
0.910582
0.893973
0.877043
0.859779
0.842167
0.824194
0.805844
0.7871
0.767943
0.748351
0.728305
0.70779
0.686796
0.665314
0.64333
0.620831
0.597795
0.5742
0.55002
0.525224
0.499778
0.473642
0.446765
0.419085
0.390521
0.360952
0.330115
0.29701
1.20354
1.17164
1.15201
1.13944
1.13066
1.12384
1.11804
1.1128
1.10786
1.10311
1.09848
1.09396
1.08952
1.08519
1.08098
1.07694
1.07316
1.06972
1.06667
1.06387
1.06129
1.05894
1.05682
1.05491
1.05319
1.05163
1.05022
1.04893
1.04777
1.04671
1.04573
1.04481
1.04388
1.0428
1.04129
1.03879
1.03068
1.01722
1.00289
0.988051
0.972844
0.957332
0.941534
0.925448
0.909064
0.892373
0.875362
0.858018
0.840328
0.822278
0.803852
0.785033
0.765802
0.74614
0.726028
0.705452
0.684399
0.66286
0.64082
0.618263
0.59517
0.57152
0.54729
0.522453
0.496984
0.47086
0.444062
0.416589
0.388478
0.359816
0.330633
0.29959
1.20345
1.17408
1.15427
1.14102
1.13153
1.12414
1.11791
1.11235
1.10717
1.10225
1.0975
1.09289
1.08841
1.08405
1.07984
1.07583
1.07207
1.06864
1.06555
1.06273
1.06014
1.05779
1.05565
1.05373
1.05199
1.05042
1.04899
1.04769
1.0465
1.0454
1.04437
1.04337
1.04231
1.04106
1.03942
1.03792
1.02984
1.0154
1.00113
0.986386
0.971249
0.955782
0.940009
0.923935
0.907554
0.890857
0.873835
0.856475
0.838765
0.820692
0.802239
0.783391
0.76413
0.744437
0.724297
0.703693
0.682612
0.661043
0.638971
0.61638
0.593252
0.569565
0.5453
0.520434
0.494951
0.468842
0.442119
0.414839
0.387148
0.359379
0.332264
0.307949
1.20517
1.17698
1.15719
1.14343
1.13336
1.12547
1.11884
1.11297
1.10757
1.10248
1.09762
1.09293
1.0884
1.08403
1.07983
1.07583
1.0721
1.06868
1.06558
1.06275
1.06016
1.05781
1.05567
1.05374
1.052
1.05042
1.04898
1.04767
1.04646
1.04533
1.04425
1.04317
1.042
1.0406
1.03874
1.03599
1.02782
1.01451
1.00037
0.985695
0.970601
0.955156
0.939389
0.923305
0.906905
0.890181
0.873125
0.855726
0.837973
0.819852
0.80135
0.782451
0.763138
0.743394
0.723203
0.70255
0.681421
0.659804
0.637683
0.615042
0.591864
0.56813
0.54382
0.518917
0.49341
0.467304
0.440634
0.4135
0.386136
0.359052
0.333389
0.311753
1.20752
1.17966
1.16
1.14585
1.13527
1.1269
1.11987
1.11368
1.10804
1.10276
1.09775
1.09296
1.08835
1.08393
1.0797
1.0757
1.07196
1.06852
1.06539
1.06253
1.05992
1.05753
1.05538
1.05342
1.05166
1.05005
1.04859
1.04725
1.04601
1.04484
1.0437
1.04253
1.04124
1.03968
1.03758
1.03416
1.02579
1.0128
0.998655
0.983944
0.968816
0.953335
0.937529
0.921407
0.904968
0.888208
0.871117
0.853687
0.835904
0.817756
0.79923
0.780309
0.760977
0.741218
0.721017
0.700357
0.679226
0.657609
0.635492
0.612858
0.58969
0.56597
0.541681
0.516808
0.491345
0.465304
0.438735
0.411759
0.384651
0.35799
0.333049
0.312963
1.20489
1.18056
1.1614
1.14715
1.13629
1.12762
1.12035
1.11397
1.10819
1.10283
1.09777
1.09295
1.08835
1.08395
1.07976
1.0758
1.07211
1.06872
1.06562
1.06279
1.06021
1.05786
1.05573
1.05381
1.05207
1.05049
1.04905
1.04773
1.0465
1.04532
1.04416
1.04295
1.04158
1.03993
1.03773
1.03425
1.02564
1.01245
0.998194
0.983421
0.968245
0.952717
0.936863
0.920694
0.904209
0.887404
0.870271
0.8528
0.834979
0.816794
0.798232
0.779277
0.759913
0.740124
0.719895
0.699211
0.678057
0.656418
0.63428
0.611627
0.588441
0.564706
0.540404
0.515523
0.490058
0.464025
0.437474
0.410529
0.383454
0.356783
0.331543
0.309454
1.20682
1.18249
1.16382
1.14956
1.1385
1.12958
1.12208
1.11553
1.10961
1.10414
1.09901
1.09414
1.08952
1.08512
1.08094
1.077
1.07333
1.06995
1.06685
1.06402
1.06144
1.05909
1.05697
1.05504
1.0533
1.05172
1.05027
1.04894
1.04769
1.04648
1.04527
1.04399
1.04254
1.04079
1.03859
1.03565
1.02672
1.01271
0.998222
0.983332
0.968064
0.952451
0.936516
0.920269
0.90371
0.886836
0.869637
0.852105
0.834226
0.815989
0.797377
0.778377
0.758973
0.739149
0.718889
0.698179
0.677003
0.655348
0.633197
0.610535
0.587344
0.563609
0.539312
0.51444
0.488988
0.462967
0.436416
0.409437
0.382239
0.355221
0.329088
0.305015
1.20438
1.18237
1.16413
1.14984
1.13854
1.12934
1.12157
1.11478
1.10867
1.10305
1.09781
1.09286
1.08818
1.08374
1.07953
1.07559
1.07191
1.06852
1.06541
1.06256
1.05997
1.05761
1.05547
1.05354
1.05179
1.0502
1.04876
1.04742
1.04616
1.04495
1.04373
1.04243
1.04097
1.03922
1.03715
1.03587
1.02742
1.01204
0.997494
0.982636
0.967408
0.951835
0.935937
0.919723
0.903193
0.886345
0.86917
0.851658
0.833798
0.815578
0.796982
0.777998
0.758609
0.738799
0.718555
0.69786
0.676701
0.655061
0.632925
0.610279
0.587104
0.563383
0.539101
0.514241
0.488795
0.462764
0.436169
0.40907
0.38159
0.353951
0.326477
0.299544
1.20504
1.18333
1.16551
1.15127
1.13981
1.13039
1.1224
1.11541
1.10913
1.10339
1.09805
1.09303
1.08831
1.08384
1.07964
1.07569
1.07202
1.06864
1.06553
1.0627
1.06011
1.05776
1.05563
1.05371
1.05197
1.0504
1.04896
1.04764
1.0464
1.04519
1.04398
1.04268
1.04123
1.0395
1.03738
1.03464
1.02653
1.0127
0.998276
0.983435
0.968219
0.952659
0.93677
0.92056
0.904031
0.887178
0.869995
0.852472
0.834599
0.816362
0.79775
0.778747
0.75934
0.739513
0.719251
0.69854
0.677364
0.65571
0.633561
0.610901
0.587715
0.563985
0.539692
0.51482
0.489354
0.463281
0.436597
0.409311
0.381449
0.353041
0.324062
0.294211
1.20653
1.18465
1.1672
1.153
1.1414
1.13175
1.12351
1.1163
1.10982
1.10391
1.09843
1.09331
1.08849
1.08396
1.0797
1.07572
1.07202
1.0686
1.06546
1.06259
1.05998
1.0576
1.05545
1.05351
1.05176
1.05017
1.04872
1.04739
1.04614
1.04493
1.04371
1.0424
1.04093
1.03918
1.03696
1.03352
1.02502
1.01165
0.997202
0.982298
0.967034
0.951438
0.935524
0.919296
0.902755
0.885896
0.868712
0.851194
0.83333
0.815108
0.796515
0.777538
0.758161
0.738369
0.718149
0.697486
0.676363
0.654768
0.632684
0.610096
0.586986
0.563339
0.539134
0.514351
0.488969
0.46296
0.436293
0.408923
0.380778
0.351719
0.321508
0.290074
1.20323
1.18427
1.1675
1.15356
1.14201
1.13232
1.124
1.1167
1.11017
1.10421
1.0987
1.09357
1.08877
1.08426
1.08003
1.07609
1.07243
1.06905
1.06595
1.06312
1.06054
1.05821
1.0561
1.05419
1.05248
1.05094
1.04953
1.04824
1.04703
1.04586
1.04467
1.0434
1.04196
1.04026
1.03811
1.03472
1.02584
1.01221
0.99762
0.982634
0.967316
0.951682
0.935738
0.919489
0.902933
0.886064
0.868874
0.851354
0.833493
0.815278
0.796696
0.777732
0.758373
0.738602
0.718406
0.697769
0.676678
0.655116
0.633069
0.61052
0.587455
0.563853
0.539697
0.514962
0.489619
0.463629
0.436933
0.409438
0.380985
0.351282
0.319764
0.285234
1.20482
1.18576
1.16957
1.15591
1.14443
1.13471
1.12632
1.11895
1.11234
1.10632
1.10077
1.0956
1.09078
1.08626
1.08204
1.0781
1.07444
1.07106
1.06797
1.06514
1.06256
1.06023
1.05811
1.05621
1.0545
1.05295
1.05155
1.05026
1.04905
1.04788
1.04669
1.04542
1.04399
1.04232
1.04033
1.03779
1.02837
1.01369
0.998796
0.983661
0.968232
0.952506
0.936484
0.920167
0.903551
0.886631
0.869398
0.851843
0.833953
0.815717
0.79712
0.778148
0.758787
0.739022
0.718838
0.69822
0.677154
0.655624
0.633617
0.611115
0.588103
0.564562
0.540473
0.51581
0.490538
0.464606
0.437937
0.410398
0.381767
0.351658
0.319397
0.283926
1.20091
1.18415
1.16843
1.15497
1.14352
1.13373
1.12523
1.11773
1.111
1.10487
1.09923
1.09399
1.08911
1.08455
1.08029
1.07633
1.07265
1.06926
1.06615
1.06331
1.06073
1.05838
1.05627
1.05437
1.05267
1.05114
1.04975
1.04849
1.04731
1.04618
1.04504
1.04384
1.0425
1.04096
1.0393
1.03908
1.03064
1.01421
0.999218
0.984097
0.9687
0.953012
0.937034
0.920765
0.9042
0.887332
0.870153
0.852653
0.834819
0.816639
0.798099
0.779185
0.759883
0.740178
0.720056
0.699501
0.678499
0.657035
0.635094
0.612662
0.589722
0.566257
0.542247
0.517665
0.492474
0.466619
0.440008
0.41249
0.383807
0.353526
0.320911
0.284797
1.20134
1.18402
1.16871
1.15549
1.14412
1.13431
1.12575
1.11817
1.11135
1.10516
1.09946
1.09419
1.08928
1.0847
1.08044
1.07648
1.07282
1.06944
1.06635
1.06352
1.06096
1.05864
1.05656
1.0547
1.05303
1.05154
1.0502
1.04899
1.04788
1.04681
1.04576
1.04465
1.04343
1.04202
1.04038
1.03833
1.03073
1.01648
1.00168
0.986576
0.971182
0.955502
0.939535
0.923279
0.906728
0.889875
0.87271
0.855223
0.837403
0.819236
0.80071
0.78181
0.762522
0.742832
0.722726
0.702188
0.681205
0.659762
0.637846
0.61544
0.592532
0.569104
0.545137
0.520607
0.495479
0.469695
0.443166
0.415735
0.387145
0.356971
0.324512
0.288579
1.20238
1.18467
1.16969
1.15664
1.14531
1.13544
1.12676
1.11905
1.1121
1.10578
1.09997
1.09459
1.0896
1.08495
1.08063
1.07661
1.0729
1.06949
1.06635
1.0635
1.06091
1.05857
1.05648
1.0546
1.05293
1.05145
1.05013
1.04895
1.04786
1.04684
1.04584
1.0448
1.04366
1.04234
1.04066
1.03778
1.02957
1.01596
1.0012
0.986054
0.970628
0.954931
0.938962
0.922716
0.906185
0.889362
0.872235
0.854795
0.837029
0.818925
0.800468
0.781645
0.762442
0.742845
0.722838
0.702407
0.681539
0.660218
0.638432
0.616166
0.593407
0.570139
0.546347
0.52201
0.497096
0.471557
0.445314
0.418227
0.39007
0.36048
0.328968
0.295239
1.19915
1.18376
1.16942
1.15673
1.1456
1.13583
1.1272
1.1195
1.11256
1.10624
1.10043
1.09507
1.09009
1.08547
1.08118
1.0772
1.07352
1.07015
1.06706
1.06424
1.0617
1.05941
1.05736
1.05554
1.05393
1.05251
1.05126
1.05015
1.04915
1.04823
1.04733
1.04641
1.04541
1.04426
1.04276
1.04
1.03122
1.01732
1.00243
0.987228
0.971772
0.956065
0.940099
0.923867
0.90736
0.890568
0.873481
0.856087
0.838374
0.820327
0.801934
0.78318
0.76405
0.74453
0.724605
0.70426
0.683481
0.662255
0.640567
0.618404
0.595754
0.572605
0.548942
0.52475
0.500008
0.474681
0.448708
0.421986
0.394332
0.365452
0.334916
0.302141
1.2006
1.18545
1.17164
1.15929
1.14836
1.1387
1.13011
1.12241
1.11546
1.10911
1.10328
1.0979
1.09291
1.08827
1.08397
1.07999
1.07631
1.07292
1.06983
1.06701
1.06446
1.06216
1.06011
1.0583
1.05669
1.05529
1.05405
1.05297
1.052
1.05112
1.05028
1.04944
1.04853
1.04751
1.04635
1.04474
1.03516
1.01995
1.0047
0.989343
0.973786
0.958
0.941972
0.925692
0.909149
0.892334
0.875234
0.857837
0.840131
0.822101
0.803734
0.785015
0.765929
0.746461
0.726597
0.706321
0.68562
0.664479
0.642885
0.620826
0.598289
0.575266
0.551746
0.52772
0.503179
0.478105
0.452471
0.426218
0.399232
0.371299
0.342121
0.312018
1.19526
1.18278
1.16934
1.15725
1.14647
1.13687
1.12828
1.12055
1.11355
1.10715
1.10127
1.09584
1.0908
1.08613
1.0818
1.07779
1.07409
1.07069
1.06758
1.06476
1.06221
1.05992
1.05788
1.05608
1.05451
1.05314
1.05195
1.05093
1.05004
1.04926
1.04854
1.04784
1.04711
1.04633
1.04568
1.04721
1.03916
1.0217
1.00631
0.990977
0.97546
0.959722
0.943752
0.927537
0.911066
0.894329
0.877312
0.860002
0.842387
0.824452
0.806183
0.787565
0.768583
0.749221
0.729466
0.709302
0.688714
0.667689
0.646214
0.624278
0.601869
0.57898
0.555607
0.531748
0.507405
0.482587
0.457301
0.431552
0.405314
0.378453
0.350471
0.319727
1.19586
1.1818
1.16876
1.15697
1.14638
1.13688
1.12835
1.12065
1.11365
1.10724
1.10136
1.09592
1.09089
1.08623
1.08191
1.07792
1.07424
1.07087
1.06779
1.065
1.06249
1.06025
1.05826
1.05652
1.05501
1.05372
1.05262
1.0517
1.05093
1.05028
1.04971
1.04919
1.04868
1.04813
1.04752
1.0467
1.04004
1.02558
1.01051
0.995222
0.979717
0.963993
0.948041
0.931849
0.915407
0.898701
0.881719
0.864447
0.846872
0.828978
0.810752
0.792179
0.773244
0.753931
0.734227
0.714115
0.693583
0.672615
0.6512
0.629327
0.606986
0.584173
0.560886
0.537133
0.51293
0.488308
0.463319
0.43804
0.412574
0.386994
0.361025
0.332114
1.19639
1.18198
1.16922
1.15762
1.14714
1.13768
1.12913
1.12137
1.1143
1.10781
1.10184
1.09633
1.09122
1.08649
1.08211
1.07807
1.07434
1.07093
1.06782
1.065
1.06247
1.06022
1.05823
1.05649
1.055
1.05374
1.05269
1.05183
1.05114
1.05058
1.05014
1.04976
1.04942
1.04903
1.04841
1.04656
1.03902
1.02545
1.01053
0.995245
0.979743
0.964037
0.948119
0.931976
0.915595
0.898963
0.882065
0.864889
0.847419
0.829641
0.81154
0.793101
0.774309
0.755149
0.735605
0.715662
0.695306
0.674523
0.653301
0.631627
0.609494
0.586897
0.56384
0.540335
0.51641
0.492118
0.467549
0.442856
0.418292
0.394305
0.371867
0.354309
1.19372
1.18084
1.16865
1.15743
1.14721
1.13793
1.1295
1.12182
1.1148
1.10836
1.10242
1.09693
1.09185
1.08715
1.0828
1.07879
1.0751
1.07173
1.06866
1.06589
1.0634
1.0612
1.05928
1.05761
1.0562
1.05503
1.05408
1.05334
1.05279
1.05239
1.05213
1.05196
1.05185
1.05173
1.0514
1.04971
1.04141
1.02751
1.01249
0.997178
0.981689
0.966016
0.950147
0.934066
0.917758
0.901208
0.884403
0.867327
0.849966
0.832303
0.814325
0.796014
0.777357
0.758335
0.738935
0.71914
0.698935
0.678306
0.657239
0.635723
0.613749
0.591313
0.56842
0.545086
0.521347
0.49727
0.472976
0.448673
0.424725
0.401795
0.381166
0.36532
1.19492
1.18297
1.17127
1.16039
1.15041
1.14129
1.13296
1.12533
1.11834
1.11191
1.10596
1.10047
1.09538
1.09066
1.0863
1.08227
1.07856
1.07517
1.07209
1.0693
1.06681
1.06461
1.06268
1.06102
1.05962
1.05848
1.05757
1.05688
1.05639
1.05609
1.05594
1.05591
1.05598
1.0561
1.05628
1.05612
1.04674
1.0312
1.01575
1.00029
0.984728
0.969004
0.953103
0.937005
0.920696
0.904159
0.887379
0.870342
0.85303
0.83543
0.817524
0.799298
0.780734
0.761817
0.74253
0.722857
0.702782
0.682291
0.661367
0.64
0.618179
0.595899
0.573164
0.549988
0.526409
0.502497
0.478382
0.454291
0.430619
0.408062
0.387871
0.37241
1.188
1.17934
1.16792
1.15731
1.14753
1.13853
1.13028
1.1227
1.11572
1.10928
1.10332
1.09781
1.0927
1.08796
1.08358
1.07954
1.07582
1.07242
1.06934
1.06656
1.06407
1.06188
1.05998
1.05836
1.05701
1.05593
1.0551
1.05451
1.05415
1.05399
1.05402
1.05421
1.05454
1.05501
1.05592
1.05993
1.05265
1.03418
1.01853
1.00311
0.9876
0.971944
0.956119
0.940108
0.923895
0.907463
0.890796
0.873878
0.856694
0.839226
0.82146
0.803377
0.784963
0.766199
0.74707
0.727559
0.707648
0.687323
0.666566
0.645364
0.623706
0.601583
0.578996
0.555954
0.532488
0.508661
0.48459
0.460482
0.436689
0.413799
0.39271
0.374482
1.18906
1.17761
1.16657
1.15628
1.14674
1.13793
1.12981
1.12233
1.11542
1.10904
1.10313
1.09765
1.09258
1.08788
1.08353
1.07953
1.07585
1.0725
1.06946
1.06674
1.06431
1.06219
1.06036
1.05883
1.05758
1.0566
1.0559
1.05545
1.05525
1.05529
1.05554
1.05599
1.05662
1.0574
1.05834
1.05929
1.05398
1.03957
1.02443
1.0091
0.993616
0.977985
0.962192
0.94622
0.930052
0.913672
0.897062
0.880207
0.863089
0.845693
0.828001
0.809998
0.791666
0.772988
0.753948
0.734528
0.714711
0.69448
0.673819
0.65271
0.631141
0.609098
0.586576
0.563577
0.540118
0.51624
0.492027
0.467631
0.443311
0.419488
0.39678
0.375787
1.18877
1.17737
1.16654
1.15645
1.14705
1.13833
1.13024
1.12276
1.11583
1.1094
1.10344
1.09791
1.09278
1.08803
1.08363
1.07958
1.07586
1.07247
1.06941
1.06666
1.06422
1.0621
1.06028
1.05877
1.05755
1.05663
1.056
1.05565
1.05557
1.05576
1.05619
1.05685
1.05772
1.05874
1.05966
1.0593
1.05285
1.03964
1.02477
1.0095
0.994071
0.978504
0.962792
0.946917
0.930862
0.914607
0.898136
0.881432
0.864477
0.847254
0.829748
0.81194
0.793814
0.775352
0.756537
0.737351
0.717776
0.697792
0.677383
0.656528
0.635211
0.613414
0.591122
0.568325
0.54502
0.521217
0.496951
0.47229
0.447363
0.422393
0.39783
0.374949
1.18713
1.17611
1.16583
1.15611
1.14698
1.13846
1.13053
1.12316
1.11631
1.10995
1.10404
1.09855
1.09345
1.08873
1.08437
1.08035
1.07667
1.07332
1.07029
1.06759
1.06521
1.06315
1.06141
1.05998
1.05887
1.05807
1.05757
1.05738
1.05748
1.05788
1.05856
1.05951
1.06071
1.0621
1.06342
1.06326
1.05587
1.04227
1.02729
1.01204
0.996663
0.981182
0.965574
0.949818
0.933894
0.917781
0.901463
0.88492
0.868135
0.851091
0.83377
0.816155
0.798228
0.779971
0.761365
0.742392
0.723033
0.703267
0.683074
0.662432
0.64132
0.619714
0.597589
0.574921
0.551683
0.527851
0.503398
0.4783
0.452528
0.426038
0.398725
0.370102
1.18761
1.17863
1.1689
1.15951
1.15062
1.14227
1.13446
1.12717
1.12037
1.11403
1.10813
1.10264
1.09753
1.09279
1.0884
1.08436
1.08065
1.07728
1.07423
1.07151
1.06912
1.06705
1.06531
1.06389
1.0628
1.06203
1.0616
1.06148
1.06169
1.06222
1.06306
1.06421
1.06566
1.06743
1.06949
1.07131
1.06261
1.04694
1.03139
1.01597
1.00055
0.985053
0.969455
0.953726
0.937845
0.921791
0.905545
0.889088
0.872402
0.85547
0.838275
0.820797
0.803018
0.784921
0.766486
0.747693
0.728523
0.708953
0.688961
0.668523
0.647612
0.626199
0.604249
0.581721
0.558566
0.534721
0.5101
0.484583
0.457989
0.430032
0.400255
0.36812
1.17877
1.174
1.1645
1.15537
1.1467
1.13851
1.13082
1.12362
1.11688
1.11058
1.10471
1.09923
1.09413
1.08939
1.08501
1.08097
1.07726
1.0739
1.07086
1.06816
1.06579
1.06375
1.06205
1.06068
1.05966
1.05898
1.05864
1.05866
1.05902
1.05974
1.0608
1.06223
1.06402
1.06623
1.06933
1.07663
1.07068
1.05114
1.03525
1.01985
1.00451
0.989102
0.973606
0.957991
0.942233
0.926313
0.91021
0.893906
0.877383
0.860623
0.843607
0.826318
0.808736
0.790843
0.772618
0.754042
0.735093
0.715748
0.695983
0.675772
0.655083
0.633881
0.612123
0.589754
0.566703
0.542872
0.518125
0.49226
0.464971
0.435767
0.40378
0.367206
1.18077
1.17237
1.1632
1.15435
1.14591
1.13792
1.13039
1.12331
1.11668
1.11047
1.10466
1.09924
1.0942
1.08951
1.08518
1.08119
1.07753
1.07421
1.07123
1.06859
1.06628
1.06431
1.06268
1.06141
1.06049
1.05992
1.05972
1.05989
1.06044
1.06136
1.06268
1.06438
1.0665
1.06906
1.07215
1.07571
1.0719
1.05721
1.04194
1.02666
1.01135
0.995987
0.980535
0.964971
0.949271
0.933415
0.917384
0.901159
0.884721
0.868053
0.851136
0.833951
0.816481
0.798705
0.780604
0.762156
0.743341
0.724135
0.704512
0.684444
0.663899
0.642836
0.621207
0.598948
0.575972
0.552161
0.527343
0.50127
0.47357
0.443683
0.410738
0.373306
1.17961
1.17197
1.16286
1.15415
1.14583
1.13792
1.13044
1.12339
1.11676
1.11054
1.10472
1.09927
1.09419
1.08947
1.0851
1.08108
1.07739
1.07405
1.07105
1.06839
1.06607
1.06411
1.0625
1.06125
1.06037
1.05987
1.05975
1.06002
1.0607
1.06178
1.06328
1.06521
1.06758
1.07039
1.07343
1.07541
1.07029
1.05711
1.04222
1.02707
1.01187
0.996612
0.981284
0.965855
0.950303
0.934607
0.918746
0.902702
0.886456
0.869991
0.853286
0.836325
0.819087
0.801554
0.783705
0.765518
0.746973
0.728044
0.708706
0.68893
0.668681
0.647918
0.626589
0.604625
0.581932
0.558378
0.533778
0.507859
0.480231
0.450328
0.417423
0.381076
1.17945
1.17077
1.16215
1.15374
1.14564
1.1379
1.13055
1.1236
1.11704
1.11088
1.1051
1.09969
1.09464
1.08995
1.08561
1.08161
1.07795
1.07464
1.07168
1.06906
1.0668
1.06489
1.06336
1.0622
1.06142
1.06103
1.06106
1.06149
1.06235
1.06366
1.06542
1.06764
1.07035
1.07353
1.07694
1.07901
1.07277
1.05931
1.04443
1.02938
1.0143
0.99919
0.984017
0.968754
0.953377
0.937865
0.922196
0.906353
0.890317
0.874068
0.857588
0.840857
0.823858
0.806569
0.78897
0.771039
0.752754
0.734091
0.715023
0.69552
0.675548
0.655065
0.634018
0.612336
0.589924
0.566646
0.542312
0.516649
0.489264
0.459591
0.426775
0.389191
1.17883
1.17355
1.16539
1.15724
1.14934
1.14174
1.13449
1.12761
1.12109
1.11495
1.10918
1.10376
1.0987
1.09399
1.08962
1.08559
1.08191
1.07857
1.07558
1.07294
1.07066
1.06875
1.06722
1.06607
1.06532
1.06498
1.06506
1.06558
1.06656
1.068
1.06993
1.07237
1.07535
1.0789
1.08308
1.0873
1.07954
1.06386
1.04847
1.03334
1.01829
1.00323
0.988113
0.972923
0.957631
0.942217
0.926659
0.910939
0.895038
0.878936
0.862616
0.846058
0.829243
0.81215
0.794759
0.777047
0.758993
0.740571
0.721755
0.702517
0.682822
0.66263
0.64189
0.620535
0.598473
0.575579
0.551672
0.5265
0.499706
0.470798
0.439091
0.403691
1.16931
1.16835
1.16035
1.1524
1.14468
1.13724
1.13012
1.12335
1.11692
1.11085
1.10513
1.09975
1.09472
1.09004
1.08569
1.08169
1.07802
1.07471
1.07174
1.06913
1.06688
1.06501
1.06353
1.06244
1.06177
1.06152
1.06171
1.06237
1.06351
1.06515
1.06731
1.07002
1.07332
1.0773
1.08255
1.09309
1.08835
1.06821
1.05255
1.03754
1.02262
1.00768
0.992696
0.977635
0.962481
0.947214
0.931815
0.916265
0.900545
0.884637
0.868521
0.852178
0.835589
0.818733
0.801587
0.784132
0.766343
0.748196
0.729666
0.710725
0.691339
0.671474
0.651082
0.630106
0.608465
0.586052
0.562713
0.538231
0.512314
0.484577
0.454526
0.421136
1.17198
1.16529
1.15749
1.14979
1.1423
1.13508
1.12815
1.12154
1.11525
1.1093
1.10369
1.09842
1.09348
1.08887
1.08461
1.08068
1.07709
1.07385
1.07096
1.06843
1.06627
1.06449
1.06311
1.06214
1.06159
1.06149
1.06186
1.0627
1.06406
1.06596
1.06841
1.07146
1.07513
1.07944
1.08447
1.09006
1.08846
1.07505