/*--------------------------------*- C++ -*----------------------------------*\
| =========                 |                                                 |
| \\      /  F ield         | OpenFOAM: The Open Source CFD Toolbox           |
|  \\    /   O peration     | Version:  2312                                  |
|   \\  /    A nd           | Website:  www.openfoam.com                      |
|    \\/     M anipulation  |                                                 |
\*---------------------------------------------------------------------------*/
FoamFile
{
    version     2.0;
    format      ascii;
    arch        "LSB;label=32;scalar=64";
    class       volScalarField;
    location    "0.035";
    object      T;
}
// * * * * * * * * * * * * * * * * * * * * * * * * * * * * * * * * * * * * * //

dimensions      [0 0 0 1 0 0 0];

internalField   nonuniform List<scalar> 
195600
(
1.02936
1.07163
1.09555
1.1078
1.11347
1.11541
1.11513
1.11346
1.11086
1.10765
1.10402
1.10011
1.09596
1.09157
1.08688
1.08162
1.07499
1.06394
1.05774
1.05872
1.05864
1.05829
1.05769
1.05689
1.05598
1.05499
1.05398
1.053
1.0521
1.05135
1.05084
1.05065
1.05091
1.05162
1.05236
1.05101
1.04699
1.03906
1.02737
1.01405
0.999968
0.985477
0.97069
0.955627
0.940281
0.924642
0.908698
0.892439
0.875854
0.858935
0.841673
0.824061
0.806081
0.787595
0.768777
0.749144
0.728978
0.708467
0.687592
0.666318
0.644608
0.622424
0.599735
0.576522
0.552784
0.52855
0.5039
0.479014
0.454236
0.43014
0.407345
0.384584
1.02681
1.06945
1.09415
1.10698
1.11304
1.1152
1.11506
1.11345
1.1109
1.10772
1.10412
1.10021
1.09607
1.0917
1.08702
1.0818
1.07536
1.0661
1.06073
1.06048
1.05994
1.05923
1.05839
1.05744
1.05641
1.05535
1.05428
1.05325
1.05233
1.05156
1.05103
1.05084
1.05109
1.05183
1.05274
1.0523
1.04835
1.03958
1.02755
1.01412
1.00002
0.985522
0.97072
0.955635
0.940266
0.924601
0.908632
0.892348
0.87574
0.858797
0.841513
0.823881
0.805894
0.78756
0.768593
0.748848
0.728701
0.708206
0.687335
0.666049
0.644314
0.622099
0.599376
0.576126
0.552348
0.528066
0.503357
0.478393
0.453513
0.429326
0.40676
0.386854
1.02947
1.07213
1.09574
1.10785
1.11355
1.11555
1.11532
1.11367
1.1111
1.10791
1.1043
1.10039
1.09626
1.09189
1.08722
1.08206
1.07586
1.06791
1.0623
1.06095
1.06023
1.05951
1.05867
1.05772
1.05667
1.05559
1.05451
1.05347
1.05254
1.05176
1.05123
1.05103
1.0513
1.05213
1.05333
1.05377
1.04965
1.03999
1.02753
1.01391
0.999737
0.985199
0.970362
0.955244
0.93984
0.924143
0.908141
0.891823
0.875181
0.858205
0.840887
0.823223
0.805214
0.786914
0.767809
0.747999
0.727844
0.707336
0.686446
0.665133
0.643363
0.621106
0.598334
0.575029
0.551187
0.526827
0.502015
0.476906
0.451825
0.427413
0.404957
0.387448
1.0339
1.07628
1.09808
1.10907
1.1142
1.11591
1.11553
1.1138
1.11118
1.10796
1.10434
1.10042
1.09628
1.09192
1.08728
1.08218
1.07625
1.06921
1.06339
1.06131
1.06043
1.05969
1.05885
1.05788
1.05682
1.05572
1.05462
1.05357
1.05263
1.05184
1.0513
1.05111
1.0514
1.05232
1.05393
1.05542
1.05116
1.04031
1.02719
1.01331
0.999016
0.984417
0.969534
0.954373
0.938928
0.923188
0.907143
0.890783
0.874096
0.857074
0.83971
0.821999
0.80395
0.785616
0.7664
0.746537
0.726351
0.705812
0.684887
0.663533
0.641712
0.619396
0.596557
0.573177
0.549246
0.524775
0.499815
0.474494
0.449099
0.424263
0.401473
0.384753
1.04074
1.08198
1.10117
1.11062
1.11496
1.11626
1.11566
1.1138
1.11109
1.10783
1.10417
1.10024
1.09609
1.09174
1.08712
1.08211
1.07643
1.07007
1.06403
1.0615
1.0605
1.05975
1.05889
1.05789
1.0568
1.05567
1.05455
1.05349
1.05253
1.05174
1.05119
1.05099
1.05129
1.05234
1.05445
1.05738
1.053
1.04045
1.02647
1.01224
0.997797
0.983112
0.968165
0.952948
0.937448
0.921655
0.905557
0.889142
0.872401
0.855323
0.8379
0.820131
0.802023
0.783624
0.764347
0.744428
0.724178
0.703582
0.682599
0.661182
0.63929
0.616895
0.59397
0.570492
0.546447
0.521835
0.496686
0.471088
0.445263
0.419755
0.395988
0.378123
1.05102
1.0893
1.10489
1.11242
1.11576
1.11652
1.11562
1.11358
1.11076
1.10742
1.10372
1.09976
1.0956
1.09125
1.08666
1.08174
1.07632
1.07047
1.0642
1.06148
1.06043
1.05965
1.05875
1.05769
1.05656
1.05539
1.05424
1.05315
1.05218
1.05137
1.05081
1.0506
1.05092
1.05208
1.05475
1.0598
1.05535
1.04025
1.02525
1.01063
0.996019
0.981224
0.966193
0.950903
0.935337
0.919478
0.903316
0.886836
0.87003
0.852885
0.835394
0.817553
0.799369
0.780894
0.761636
0.741636
0.721282
0.7006
0.679536
0.658032
0.636049
0.613555
0.590522
0.566925
0.542743
0.517962
0.492584
0.466648
0.440282
0.413849
0.388392
0.367443
1.0664
1.09815
1.10912
1.11441
1.11657
1.11668
1.1154
1.11313
1.11015
1.10673
1.10297
1.09897
1.09479
1.09044
1.08589
1.08107
1.0759
1.07049
1.06392
1.06123
1.0602
1.05938
1.05841
1.05729
1.05609
1.05488
1.05369
1.05258
1.05159
1.05077
1.05019
1.04997
1.05029
1.05154
1.05474
1.06302
1.05848
1.03952
1.02347
1.00847
0.993653
0.97873
0.963605
0.948236
0.932596
0.916666
0.900432
0.883881
0.867
0.84978
0.83221
0.814285
0.796008
0.777418
0.758158
0.738125
0.717726
0.696954
0.67577
0.654139
0.632029
0.609405
0.586238
0.562496
0.53815
0.513169
0.487526
0.461201
0.434199
0.406627
0.37882
0.352607
1.08868
1.10686
1.11263
1.11579
1.1169
1.11644
1.11485
1.11239
1.10929
1.1058
1.102
1.09798
1.0938
1.08946
1.08496
1.08025
1.07532
1.0703
1.06642
1.06378
1.06183
1.06023
1.05873
1.05727
1.05586
1.05451
1.05324
1.05207
1.05104
1.05019
1.04959
1.04935
1.04965
1.05091
1.05442
1.06774
1.06269
1.03781
1.02115
1.0059
0.990933
0.975912
0.960708
0.945262
0.929542
0.91353
0.897211
0.880572
0.863602
0.846289
0.828622
0.810593
0.792198
0.773426
0.754072
0.734059
0.713635
0.692766
0.671442
0.649659
0.627392
0.60461
0.581277
0.557361
0.532822
0.507616
0.481684
0.454942
0.427257
0.398384
0.367747
0.333211
1.12306
1.11608
1.11663
1.11761
1.11763
1.11655
1.11455
1.11186
1.10865
1.10507
1.10122
1.09717
1.09298
1.08866
1.0842
1.0796
1.0749
1.07048
1.06917
1.06633
1.0634
1.06099
1.05897
1.0572
1.0556
1.05415
1.05282
1.05162
1.05057
1.04971
1.0491
1.04884
1.0491
1.05028
1.05342
1.06114
1.05537
1.03537
1.01887
1.00354
0.988474
0.973366
0.958076
0.942542
0.92673
0.910623
0.894208
0.877471
0.860401
0.842985
0.825212
0.807071
0.788549
0.769618
0.750144
0.730082
0.709568
0.688599
0.667167
0.645261
0.62286
0.599935
0.576451
0.552371
0.527651
0.502232
0.476027
0.448893
0.420569
0.390501
0.357478
0.318004
1.14927
1.12641
1.12182
1.12034
1.11902
1.11714
1.11459
1.11156
1.10816
1.10445
1.1005
1.09639
1.09217
1.08784
1.08342
1.07891
1.07441
1.07035
1.0684
1.06564
1.06283
1.06043
1.05837
1.05657
1.05495
1.05347
1.05213
1.05092
1.04987
1.049
1.04837
1.04806
1.04825
1.04923
1.05164
1.05572
1.04946
1.03246
1.01638
1.00103
0.985879
0.970677
0.955296
0.939672
0.923771
0.907577
0.891075
0.874252
0.857094
0.839588
0.821722
0.803482
0.784851
0.765794
0.746223
0.72611
0.705527
0.684479
0.662959
0.640956
0.618447
0.595405
0.571795
0.547578
0.522704
0.497102
0.470661
0.443194
0.41435
0.383422
0.348984
0.308193
1.16486
1.13563
1.1267
1.12295
1.12035
1.11771
1.11472
1.1114
1.10781
1.10396
1.09994
1.09579
1.09155
1.08723
1.08286
1.07845
1.07414
1.07031
1.06796
1.06524
1.06252
1.06014
1.05807
1.05625
1.05461
1.05313
1.05178
1.05058
1.04952
1.04864
1.04799
1.04764
1.04771
1.04844
1.05008
1.0519
1.04529
1.02998
1.01434
0.999037
0.98383
0.968543
0.953072
0.937357
0.921365
0.905079
0.888486
0.871569
0.854315
0.83671
0.818741
0.800393
0.781645
0.762463
0.742788
0.722598
0.701931
0.680791
0.65917
0.637057
0.614429
0.591259
0.567512
0.543148
0.518112
0.492326
0.465665
0.437911
0.408666
0.377156
0.341867
0.300035
1.17887
1.14413
1.13169
1.12586
1.12202
1.11862
1.11516
1.11153
1.10772
1.10374
1.09962
1.09541
1.09114
1.08682
1.08248
1.07816
1.07399
1.07031
1.06768
1.06496
1.06229
1.05992
1.05783
1.05598
1.05432
1.05281
1.05145
1.05023
1.04915
1.04824
1.04755
1.04712
1.04705
1.04746
1.04839
1.04894
1.04207
1.02749
1.01222
0.996979
0.98173
0.966365
0.950805
0.935002
0.918924
0.902552
0.885871
0.868865
0.85152
0.833823
0.815759
0.797311
0.778458
0.759169
0.7394
0.719134
0.698389
0.677165
0.655456
0.633246
0.610515
0.587236
0.563375
0.53889
0.513726
0.487802
0.460988
0.433063
0.403623
0.371923
0.336592
0.295419
1.18673
1.15129
1.13611
1.12837
1.1233
1.11911
1.11514
1.11116
1.10711
1.10296
1.09873
1.09445
1.09014
1.08582
1.08151
1.07726
1.0732
1.0696
1.0668
1.06406
1.06143
1.05905
1.05695
1.05508
1.0534
1.05188
1.0505
1.04926
1.04816
1.04723
1.04649
1.04597
1.04574
1.04584
1.04618
1.04647
1.03925
1.02463
1.00975
0.994684
0.979497
0.964143
0.948571
0.93274
0.916627
0.900212
0.88348
0.866419
0.849015
0.831254
0.813121
0.7946
0.775668
0.756299
0.736458
0.716131
0.695322
0.67403
0.652245
0.629954
0.607135
0.583761
0.559801
0.535213
0.509943
0.483913
0.457
0.428997
0.399541
0.367986
0.333214
0.293462
1.19347
1.15807
1.1409
1.13152
1.12531
1.12036
1.11587
1.11154
1.10724
1.10292
1.09858
1.09423
1.08988
1.08555
1.08126
1.07707
1.0731
1.06956
1.06665
1.06389
1.06128
1.05891
1.0568
1.05491
1.05321
1.05167
1.05028
1.04903
1.04791
1.04694
1.04614
1.04553
1.04513
1.0449
1.04463
1.04336
1.03575
1.02229
1.00777
0.992855
0.977722
0.962371
0.946775
0.930906
0.914743
0.898269
0.881474
0.864343
0.846866
0.829027
0.810813
0.792207
0.773187
0.753729
0.733807
0.713405
0.692521
0.671151
0.649284
0.626906
0.603995
0.580527
0.556471
0.531788
0.506429
0.480323
0.453364
0.42538
0.39608
0.364974
0.331294
0.294017
1.19939
1.16385
1.1453
1.13453
1.12727
1.12158
1.11657
1.11187
1.10731
1.10281
1.09834
1.09391
1.0895
1.08515
1.08087
1.07672
1.07281
1.06929
1.06629
1.0635
1.06089
1.05851
1.05638
1.05446
1.05274
1.05118
1.04976
1.04848
1.04733
1.04632
1.04545
1.04472
1.04413
1.04358
1.04275
1.04051
1.03274
1.01979
1.00545
0.990601
0.97546
0.960067
0.944415
0.928484
0.912257
0.89572
0.878862
0.86167
0.84413
0.826229
0.807953
0.789283
0.7702
0.750681
0.730703
0.710253
0.689322
0.667905
0.645989
0.623559
0.600595
0.577073
0.552964
0.528234
0.50284
0.476724
0.449807
0.421967
0.393013
0.362647
0.330544
0.297783
1.19978
1.16774
1.14848
1.1367
1.12863
1.12235
1.11694
1.11197
1.10723
1.10262
1.09808
1.09361
1.0892
1.08487
1.08064
1.07656
1.07273
1.06927
1.06624
1.06346
1.06087
1.05852
1.05641
1.05451
1.0528
1.05125
1.04985
1.04858
1.04743
1.04641
1.0455
1.04468
1.04393
1.0431
1.04188
1.03924
1.03131
1.01837
1.0041
0.989279
0.974117
0.958675
0.942957
0.926955
0.910655
0.894046
0.877116
0.859852
0.84224
0.824266
0.805915
0.787171
0.768012
0.74842
0.728372
0.707856
0.686861
0.665377
0.643392
0.620891
0.597853
0.574257
0.550074
0.525277
0.499829
0.47369
0.446811
0.419128
0.390561
0.36099
0.33015
0.297042
1.20354
1.17164
1.15202
1.13945
1.13067
1.12385
1.11805
1.11281
1.10788
1.10313
1.0985
1.09398
1.08955
1.08521
1.08101
1.07697
1.07319
1.06976
1.0667
1.06391
1.06133
1.05898
1.05686
1.05496
1.05324
1.05168
1.05027
1.04899
1.04782
1.04676
1.04579
1.04487
1.04395
1.04287
1.04136
1.03886
1.03075
1.01729
1.00296
0.988123
0.972917
0.957406
0.941608
0.925521
0.909138
0.892446
0.875435
0.858091
0.840401
0.82235
0.803923
0.785103
0.765871
0.746208
0.726095
0.705517
0.684464
0.662923
0.640881
0.618323
0.595228
0.571577
0.547344
0.522505
0.497035
0.470908
0.444107
0.416632
0.388518
0.359854
0.330668
0.299622
1.20345
1.17408
1.15428
1.14102
1.13154
1.12415
1.11793
1.11236
1.10719
1.10227
1.09752
1.09291
1.08843
1.08408
1.07987
1.07586
1.0721
1.06867
1.06559
1.06277
1.06019
1.05783
1.0557
1.05378
1.05204
1.05047
1.04904
1.04774
1.04656
1.04546
1.04443
1.04343
1.04238
1.04112
1.03949
1.03799
1.02991
1.01547
1.0012
0.986458
0.971322
0.955855
0.940083
0.924008
0.907627
0.89093
0.873908
0.856548
0.838837
0.820763
0.802309
0.78346
0.764199
0.744505
0.724364
0.703758
0.682677
0.661106
0.639033
0.61644
0.59331
0.569622
0.545354
0.520486
0.495001
0.46889
0.442164
0.414881
0.387188
0.359417
0.332299
0.307982
1.20517
1.17698
1.1572
1.14343
1.13337
1.12548
1.11885
1.11298
1.10759
1.1025
1.09764
1.09295
1.08843
1.08405
1.07986
1.07586
1.07213
1.06871
1.06562
1.06279
1.06021
1.05785
1.05572
1.05379
1.05205
1.05047
1.04903
1.04772
1.04652
1.04539
1.04431
1.04323
1.04207
1.04067
1.03881
1.03606
1.0279
1.01458
1.00044
0.985767
0.970674
0.955229
0.939462
0.923379
0.906978
0.890254
0.873198
0.855798
0.838045
0.819923
0.80142
0.78252
0.763206
0.743462
0.72327
0.702615
0.681485
0.659866
0.637744
0.615102
0.591922
0.568186
0.543874
0.518969
0.49346
0.467352
0.440679
0.413543
0.386176
0.359089
0.333424
0.311786
1.20752
1.17966
1.16001
1.14586
1.13528
1.12691
1.11988
1.1137
1.10805
1.10278
1.09777
1.09298
1.08838
1.08396
1.07973
1.07573
1.07199
1.06855
1.06543
1.06257
1.05996
1.05758
1.05542
1.05347
1.0517
1.0501
1.04864
1.04731
1.04607
1.0449
1.04376
1.04259
1.0413
1.03975
1.03765
1.03423
1.02586
1.01287
0.998727
0.984016
0.968889
0.953408
0.937602
0.92148
0.905041
0.888281
0.87119
0.853759
0.835976
0.817827
0.7993
0.780378
0.761046
0.741286
0.721083
0.700423
0.67929
0.657672
0.635553
0.612917
0.589748
0.566026
0.541734
0.516859
0.491394
0.465351
0.438779
0.411802
0.384691
0.358028
0.333084
0.312997
1.20489
1.18056
1.1614
1.14715
1.1363
1.12763
1.12036
1.11399
1.10821
1.10285
1.09779
1.09297
1.08837
1.08397
1.07979
1.07583
1.07215
1.06875
1.06566
1.06283
1.06025
1.0579
1.05578
1.05385
1.05212
1.05054
1.0491
1.04778
1.04655
1.04538
1.04422
1.04301
1.04165
1.03999
1.0378
1.03432
1.02571
1.01252
0.998266
0.983493
0.968317
0.95279
0.936936
0.920767
0.904282
0.887477
0.870344
0.852872
0.83505
0.816865
0.798302
0.779346
0.759981
0.740192
0.719961
0.699276
0.67812
0.65648
0.634341
0.611686
0.588498
0.564761
0.540457
0.515574
0.490107
0.464072
0.437518
0.410571
0.383494
0.35682
0.331577
0.309487
1.20682
1.18249
1.16382
1.14957
1.1385
1.12959
1.1221
1.11554
1.10962
1.10416
1.09903
1.09417
1.08954
1.08514
1.08096
1.07703
1.07336
1.06998
1.06689
1.06406
1.06148
1.05914
1.05701
1.05509
1.05335
1.05177
1.05032
1.04899
1.04774
1.04654
1.04533
1.04406
1.04261
1.04086
1.03866
1.03572
1.0268
1.01278
0.998294
0.983404
0.968136
0.952523
0.936589
0.920342
0.903783
0.886908
0.86971
0.852177
0.834298
0.816059
0.797447
0.778446
0.759041
0.739216
0.718955
0.698244
0.677067
0.65541
0.633257
0.610593
0.587401
0.563664
0.539365
0.514491
0.489037
0.463013
0.43646
0.409479
0.382278
0.355257
0.329122
0.305047
1.20438
1.18237
1.16414
1.14985
1.13855
1.12935
1.12159
1.1148
1.10869
1.10307
1.09783
1.09288
1.0882
1.08376
1.07956
1.07562
1.07194
1.06855
1.06544
1.0626
1.06001
1.05766
1.05552
1.05359
1.05184
1.05026
1.04881
1.04747
1.04622
1.04501
1.04379
1.04249
1.04103
1.03928
1.03722
1.03594
1.02749
1.01211
0.997566
0.982708
0.96748
0.951907
0.936009
0.919795
0.903266
0.886417
0.869242
0.85173
0.833869
0.815648
0.797052
0.778067
0.758676
0.738866
0.718621
0.697925
0.676764
0.655122
0.632985
0.610337
0.58716
0.563438
0.539153
0.514292
0.488844
0.46281
0.436213
0.409111
0.381629
0.353987
0.32651
0.299575
1.20504
1.18334
1.16552
1.15127
1.13982
1.1304
1.12241
1.11542
1.10915
1.10341
1.09807
1.09306
1.08833
1.08387
1.07967
1.07572
1.07206
1.06867
1.06557
1.06273
1.06015
1.0578
1.05568
1.05376
1.05202
1.05045
1.04902
1.04769
1.04645
1.04525
1.04404
1.04275
1.04129
1.03956
1.03744
1.03471
1.0266
1.01277
0.998347
0.983507
0.968292
0.952731
0.936842
0.920633
0.904103
0.887251
0.870067
0.852544
0.83467
0.816433
0.797819
0.778816
0.759407
0.739579
0.719316
0.698604
0.677427
0.655771
0.633621
0.61096
0.587772
0.564039
0.539745
0.514871
0.489402
0.463327
0.436641
0.409353
0.381487
0.353077
0.324096
0.294242
1.20653
1.18466
1.16721
1.15301
1.14141
1.13176
1.12352
1.11631
1.10984
1.10393
1.09845
1.09333
1.08852
1.08399
1.07973
1.07575
1.07205
1.06863
1.0655
1.06263
1.06002
1.05764
1.0555
1.05356
1.0518
1.05022
1.04878
1.04745
1.0462
1.04499
1.04377
1.04246
1.04099
1.03924
1.03703
1.03359
1.02509
1.01172
0.997274
0.982369
0.967106
0.95151
0.935596
0.919368
0.902827
0.885968
0.868784
0.851265
0.8334
0.815178
0.796584
0.777606
0.758228
0.738436
0.718215
0.697549
0.676426
0.654829
0.632743
0.610153
0.587042
0.563393
0.539186
0.514402
0.489017
0.463006
0.436337
0.408964
0.380816
0.351755
0.321541
0.290104
1.20324
1.18428
1.1675
1.15357
1.14202
1.13233
1.12401
1.11672
1.11018
1.10422
1.09872
1.09359
1.08879
1.08429
1.08006
1.07612
1.07246
1.06908
1.06599
1.06316
1.06058
1.05825
1.05614
1.05424
1.05253
1.05099
1.04959
1.0483
1.04709
1.04592
1.04473
1.04346
1.04202
1.04032
1.03817
1.03479
1.02591
1.01228
0.997691
0.982706
0.967388
0.951754
0.93581
0.919561
0.903005
0.886135
0.868945
0.851425
0.833564
0.815348
0.796765
0.777801
0.75844
0.738668
0.718471
0.697833
0.67674
0.655177
0.633128
0.610578
0.58751
0.563907
0.539749
0.515012
0.489667
0.463675
0.436976
0.409479
0.381023
0.351317
0.319797
0.285263
1.20482
1.18576
1.16957
1.15591
1.14444
1.13472
1.12634
1.11896
1.11235
1.10634
1.10079
1.09563
1.0908
1.08629
1.08207
1.07813
1.07447
1.0711
1.068
1.06518
1.0626
1.06027
1.05816
1.05626
1.05455
1.05301
1.05161
1.05032
1.04911
1.04794
1.04675
1.04548
1.04405
1.04238
1.0404
1.03786
1.02844
1.01376
0.998867
0.983732
0.968304
0.952578
0.936556
0.920239
0.903623
0.886702
0.869469
0.851914
0.834023
0.815786
0.797188
0.778216
0.758854
0.739088
0.718902
0.698283
0.677216
0.655685
0.633676
0.611172
0.588158
0.564616
0.540525
0.51586
0.490586
0.464652
0.43798
0.410439
0.381806
0.351694
0.31943
0.283955
1.20091
1.18415
1.16844
1.15498
1.14353
1.13374
1.12524
1.11774
1.11101
1.10489
1.09925
1.09402
1.08914
1.08458
1.08032
1.07636
1.07269
1.0693
1.06619
1.06335
1.06077
1.05843
1.05632
1.05442
1.05272
1.05119
1.04981
1.04855
1.04737
1.04624
1.0451
1.0439
1.04257
1.04103
1.03937
1.03915
1.03071
1.01428
0.999289
0.984168
0.968771
0.953083
0.937106
0.920836
0.904271
0.887403
0.870224
0.852723
0.834889
0.816708
0.798167
0.779253
0.75995
0.740244
0.72012
0.699564
0.67856
0.657095
0.635153
0.612719
0.589777
0.566311
0.542298
0.517714
0.492522
0.466665
0.440051
0.41253
0.383845
0.353561
0.320943
0.284826
1.20135
1.18402
1.16872
1.15549
1.14413
1.13432
1.12576
1.11818
1.11137
1.10518
1.09948
1.09421
1.0893
1.08473
1.08047
1.07651
1.07285
1.06948
1.06638
1.06356
1.061
1.05869
1.05661
1.05474
1.05308
1.05159
1.05026
1.04905
1.04793
1.04687
1.04582
1.04471
1.04349
1.04209
1.04045
1.0384
1.0308
1.01655
1.00175
0.986647
0.971254
0.955574
0.939607
0.923351
0.906799
0.889946
0.872781
0.855294
0.837473
0.819305
0.800778
0.781877
0.762588
0.742897
0.72279
0.702251
0.681267
0.659823
0.637904
0.615497
0.592587
0.569157
0.545189
0.520657
0.495526
0.469741
0.443209
0.415775
0.387183
0.357006
0.324545
0.288608
1.20238
1.18467
1.1697
1.15665
1.14531
1.13545
1.12677
1.11906
1.11212
1.1058
1.09999
1.09461
1.08962
1.08498
1.08066
1.07664
1.07294
1.06952
1.06639
1.06354
1.06095
1.05862
1.05652
1.05465
1.05298
1.0515
1.05018
1.049
1.04792
1.0469
1.0459
1.04486
1.04372
1.0424
1.04073
1.03785
1.02964
1.01603
1.00127
0.986125
0.970699
0.955002
0.939033
0.922787
0.906256
0.889432
0.872305
0.854865
0.837098
0.818993
0.800536
0.781712
0.762508
0.74291
0.722902
0.70247
0.6816
0.660278
0.63849
0.616223
0.593462
0.570193
0.546399
0.522059
0.497143
0.471602
0.445357
0.418268
0.390108
0.360516
0.329
0.295268
1.19915
1.18376
1.16942
1.15673
1.14561
1.13584
1.12722
1.11952
1.11258
1.10626
1.10045
1.09509
1.09012
1.0855
1.0812
1.07723
1.07356
1.07018
1.06709
1.06428
1.06174
1.05945
1.0574
1.05559
1.05398
1.05256
1.05131
1.05021
1.04921
1.04829
1.04739
1.04648
1.04548
1.04432
1.04283
1.04006
1.03128
1.01739
1.0025
0.987299
0.971843
0.956136
0.94017
0.923938
0.907431
0.890639
0.873551
0.856157
0.838443
0.820396
0.802002
0.783246
0.764116
0.744594
0.724668
0.704322
0.683542
0.662315
0.640625
0.618461
0.595809
0.572658
0.548993
0.5248
0.500056
0.474726
0.448751
0.422026
0.39437
0.365488
0.334949
0.302171
1.2006
1.18546
1.17164
1.1593
1.14837
1.13871
1.13012
1.12243
1.11547
1.10913
1.1033
1.09792
1.09293
1.0883
1.084
1.08002
1.07634
1.07296
1.06986
1.06705
1.0645
1.06221
1.06016
1.05834
1.05674
1.05534
1.0541
1.05302
1.05206
1.05118
1.05034
1.0495
1.04859
1.04757
1.04641
1.04481
1.03523
1.02002
1.00477
0.989413
0.973856
0.95807
0.942043
0.925762
0.909219
0.892404
0.875303
0.857906
0.840199
0.822169
0.803801
0.785081
0.765994
0.746526
0.72666
0.706383
0.685681
0.664538
0.642943
0.620882
0.598344
0.575319
0.551797
0.527769
0.503226
0.47815
0.452514
0.426259
0.39927
0.371335
0.342154
0.312049
1.19526
1.18278
1.16935
1.15726
1.14648
1.13688
1.12829
1.12057
1.11356
1.10717
1.10129
1.09586
1.09083
1.08616
1.08183
1.07782
1.07412
1.07073
1.06762
1.0648
1.06225
1.05996
1.05793
1.05613
1.05455
1.05319
1.052
1.05098
1.0501
1.04932
1.0486
1.0479
1.04718
1.0464
1.04575
1.04728
1.03923
1.02177
1.00638
0.991046
0.97553
0.959792
0.943822
0.927607
0.911136
0.894398
0.877381
0.860071
0.842456
0.82452
0.80625
0.787631
0.768648
0.749285
0.729529
0.709364
0.688775
0.667749
0.646272
0.624334
0.601924
0.579033
0.555658
0.531797
0.507453
0.482632
0.457345
0.431593
0.405353
0.378489
0.350504
0.319758
1.19586
1.1818
1.16877
1.15698
1.14639
1.1369
1.12837
1.12066
1.11366
1.10726
1.10138
1.09594
1.09091
1.08625
1.08193
1.07795
1.07427
1.0709
1.06783
1.06504
1.06253
1.06029
1.05831
1.05657
1.05506
1.05377
1.05267
1.05175
1.05098
1.05033
1.04977
1.04926
1.04874
1.04819
1.04758
1.04677
1.04011
1.02565
1.01058
0.995292
0.979787
0.964063
0.948111
0.931919
0.915477
0.898771
0.881788
0.864516
0.84694
0.829046
0.810819
0.792245
0.773309
0.753995
0.73429
0.714177
0.693643
0.672675
0.651258
0.629383
0.607041
0.584226
0.560937
0.537182
0.512977
0.488353
0.463362
0.438081
0.412612
0.387031
0.36106
0.332146
1.19639
1.18198
1.16922
1.15763
1.14715
1.13769
1.12914
1.12139
1.11431
1.10783
1.10186
1.09635
1.09125
1.08652
1.08214
1.0781
1.07437
1.07096
1.06785
1.06504
1.06251
1.06026
1.05827
1.05654
1.05505
1.05379
1.05274
1.05188
1.05119
1.05064
1.0502
1.04983
1.04948
1.0491
1.04848
1.04663
1.03909
1.02552
1.0106
0.995314
0.979812
0.964107
0.948189
0.932046
0.915665
0.899032
0.882134
0.864957
0.847486
0.829708
0.811606
0.793166
0.774374
0.755212
0.735667
0.715724
0.695367
0.674582
0.653358
0.631683
0.609548
0.58695
0.563891
0.540384
0.516457
0.492163
0.467592
0.442897
0.418331
0.394342
0.371902
0.354343
1.19372
1.18085
1.16865
1.15744
1.14722
1.13794
1.12951
1.12184
1.11482
1.10837
1.10244
1.09695
1.09188
1.08718
1.08283
1.07882
1.07513
1.07176
1.06869
1.06592
1.06344
1.06125
1.05932
1.05766
1.05625
1.05508
1.05413
1.0534
1.05284
1.05245
1.05219
1.05202
1.05191
1.0518
1.05146
1.04977
1.04147
1.02758
1.01255
0.997246
0.981757
0.966085
0.950216
0.934135
0.917827
0.901277
0.884471
0.867395
0.850033
0.83237
0.814391
0.79608
0.777421
0.758399
0.738998
0.719202
0.698996
0.678365
0.657297
0.635779
0.613803
0.591366
0.568471
0.545135
0.521394
0.497315
0.473019
0.448714
0.424765
0.401833
0.381201
0.365355
1.19492
1.18297
1.17127
1.1604
1.15042
1.1413
1.13297
1.12535
1.11836
1.11192
1.10598
1.10049
1.0954
1.09069
1.08632
1.0823
1.07859
1.07521
1.07212
1.06934
1.06685
1.06465
1.06272
1.06107
1.05967
1.05853
1.05762
1.05693
1.05645
1.05614
1.05599
1.05597
1.05604
1.05617
1.05635
1.05619
1.04681
1.03127
1.01582
1.00036
0.984796
0.969073
0.953171
0.937074
0.920764
0.904227
0.887447
0.870409
0.853097
0.835496
0.81759
0.799362
0.780798
0.76188
0.742592
0.722918
0.702842
0.682349
0.661425
0.640056
0.618233
0.595952
0.573215
0.550037
0.526456
0.502542
0.478426
0.454332
0.430658
0.4081
0.387907
0.372445
1.188
1.17934
1.16792
1.15732
1.14753
1.13854
1.13029
1.12271
1.11573
1.10929
1.10334
1.09783
1.09272
1.08799
1.08361
1.07957
1.07585
1.07246
1.06937
1.06659
1.06411
1.06192
1.06002
1.05841
1.05706
1.05598
1.05515
1.05456
1.0542
1.05404
1.05407
1.05427
1.0546
1.05507
1.05598
1.05999
1.05271
1.03425
1.01859
1.00318
0.987668
0.972012
0.956187
0.940176
0.923963
0.90753
0.890863
0.873945
0.85676
0.839292
0.821525
0.803442
0.785027
0.766262
0.747132
0.72762
0.707708
0.687381
0.666623
0.64542
0.62376
0.601636
0.579046
0.556003
0.532535
0.508707
0.484634
0.460523
0.436729
0.413837
0.392746
0.374516
1.18906
1.17761
1.16657
1.15628
1.14675
1.13794
1.12982
1.12234
1.11544
1.10905
1.10315
1.09767
1.0926
1.0879
1.08356
1.07956
1.07588
1.07253
1.0695
1.06677
1.06435
1.06223
1.06041
1.05887
1.05762
1.05665
1.05595
1.0555
1.05531
1.05534
1.0556
1.05605
1.05668
1.05746
1.0584
1.05935
1.05405
1.03964
1.0245
1.00916
0.993684
0.978053
0.96226
0.946288
0.93012
0.913739
0.89713
0.880274
0.863156
0.845759
0.828066
0.810062
0.791729
0.773051
0.75401
0.734589
0.714771
0.694539
0.673876
0.652766
0.631195
0.609151
0.586627
0.563626
0.540165
0.516285
0.492071
0.467673
0.443351
0.419526
0.396816
0.375821
1.18877
1.17737
1.16655
1.15646
1.14706
1.13834
1.13025
1.12277
1.11584
1.10942
1.10346
1.09793
1.0928
1.08805
1.08366
1.07961
1.07589
1.07251
1.06944
1.06669
1.06426
1.06214
1.06032
1.05881
1.0576
1.05668
1.05605
1.0557
1.05562
1.05581
1.05624
1.05691
1.05778
1.0588
1.05972
1.05937
1.05292
1.03971
1.02484
1.00957
0.994138
0.978571
0.962859
0.946985
0.930929
0.914674
0.898203
0.881498
0.864543
0.84732
0.829812
0.812004
0.793877
0.775415
0.756599
0.737411
0.717835
0.69785
0.677439
0.656584
0.635265
0.613466
0.591173
0.568374
0.545067
0.521263
0.496994
0.472332
0.447402
0.42243
0.397866
0.374983
1.18714
1.17611
1.16583
1.15611
1.14699
1.13847
1.13054
1.12317
1.11633
1.10997
1.10406
1.09857
1.09348
1.08876
1.08439
1.08038
1.0767
1.07335
1.07033
1.06763
1.06525
1.06319
1.06145
1.06003
1.05891
1.05811
1.05762
1.05743
1.05754
1.05794
1.05861
1.05956
1.06077
1.06216
1.06348
1.06332
1.05594
1.04233
1.02736
1.0121
0.996729
0.981248
0.965641
0.949885
0.93396
0.917848
0.901529
0.884985
0.8682
0.851155
0.833834
0.816218
0.79829
0.780032
0.761426
0.742452
0.723091
0.703324
0.68313
0.662487
0.641374
0.619766
0.597639
0.57497
0.55173
0.527896
0.503441
0.478341
0.452567
0.426075
0.39876
0.370135
1.18761
1.17863
1.1689
1.15952
1.15063
1.14228
1.13447
1.12718
1.12038
1.11405
1.10815
1.10266
1.09755
1.09281
1.08843
1.08439
1.08068
1.07731
1.07427
1.07155
1.06916
1.06709
1.06535
1.06393
1.06284
1.06208
1.06164
1.06153
1.06174
1.06227
1.06311
1.06427
1.06572
1.06749
1.06955
1.07137
1.06267
1.047
1.03146
1.01604
1.00061
0.985119
0.969521
0.953792
0.937911
0.921857
0.90561
0.889153
0.872467
0.855535
0.838338
0.82086
0.803081
0.784982
0.766546
0.747753
0.728581
0.70901
0.689017
0.668578
0.647666
0.626251
0.604299
0.58177
0.558614
0.534766
0.510143
0.484624
0.458028
0.430069
0.40029
0.368152
1.17877
1.174
1.16451
1.15538
1.14671
1.13852
1.13084
1.12363
1.11689
1.1106
1.10472
1.09925
1.09415
1.08941
1.08503
1.08099
1.07729
1.07393
1.07089
1.06819
1.06582
1.06379
1.06209
1.06072
1.0597
1.05902
1.05869
1.05871
1.05907
1.05979
1.06086
1.06228
1.06407
1.06629
1.0694
1.07669
1.07074
1.0512
1.03531
1.01992
1.00457
0.989168
0.973672
0.958057
0.942299
0.926378
0.910275
0.893971
0.877448
0.860687
0.843671
0.826381
0.808798
0.790904
0.772678
0.754101
0.735151
0.715805
0.696039
0.675826
0.655136
0.633933
0.612173
0.589803
0.56675
0.542917
0.518168
0.492301
0.465011
0.435804
0.403814
0.367238
1.18077
1.17238
1.16321
1.15435
1.14592
1.13793
1.1304
1.12333
1.11669
1.11048
1.10468
1.09926
1.09422
1.08954
1.0852
1.08121
1.07756
1.07424
1.07126
1.06862
1.06631
1.06435
1.06272
1.06145
1.06053
1.05997
1.05977
1.05994
1.06049
1.06141
1.06273
1.06444
1.06656
1.06912
1.07221
1.07577
1.07196
1.05728
1.042
1.02672
1.01142
0.996052
0.980601
0.965036
0.949336
0.93348
0.917449
0.901223
0.884785
0.868116
0.851199
0.834014
0.816543
0.798766
0.780664
0.762215
0.743399
0.724192
0.704568
0.684499
0.663952
0.642888
0.621258
0.598997
0.57602
0.552207
0.527387
0.501312
0.47361
0.44372
0.410773
0.373337
1.17961
1.17198
1.16286
1.15416
1.14584
1.13793
1.13046
1.12341
1.11678
1.11056
1.10473
1.09929
1.09421
1.0895
1.08513
1.0811
1.07742
1.07408
1.07108
1.06842
1.06611
1.06415
1.06254
1.06129
1.06042
1.05992
1.0598
1.06007
1.06074
1.06183
1.06333
1.06526
1.06764
1.07045
1.07349
1.07547
1.07035
1.05718
1.04229
1.02713
1.01193
0.996676
0.981348
0.96592
0.950368
0.934671
0.91881
0.902766
0.88652
0.870054
0.853349
0.836387
0.819149
0.801614
0.783764
0.765577
0.74703
0.7281
0.708762
0.688984
0.668734
0.64797
0.626639
0.604674
0.581979
0.558424
0.533821
0.507901
0.48027
0.450365
0.417457
0.381108
1.17945
1.17077
1.16215
1.15374
1.14564
1.13791
1.13056
1.12361
1.11706
1.1109
1.10512
1.09971
1.09466
1.08997
1.08563
1.08163
1.07798
1.07467
1.07171
1.06909
1.06683
1.06493
1.0634
1.06224
1.06146
1.06108
1.0611
1.06154
1.0624
1.06371
1.06547
1.0677
1.07041
1.07359
1.077
1.07907
1.07283
1.05938
1.0445
1.02944
1.01436
0.999253
0.984081
0.968818
0.953441
0.937928
0.92226
0.906416
0.890379
0.87413
0.857649
0.840919
0.823918
0.806629
0.789029
0.771097
0.752811
0.734147
0.715078
0.695574
0.675601
0.655117
0.634068
0.612385
0.589971
0.566692
0.542356
0.516691
0.489304
0.459629
0.42681
0.389223
1.17883
1.17355
1.1654
1.15725
1.14934
1.14175
1.1345
1.12762
1.12111
1.11497
1.10919
1.10378
1.09872
1.09401
1.08964
1.08562
1.08193
1.0786
1.07561
1.07297
1.0707
1.06879
1.06725
1.06611
1.06536
1.06502
1.0651
1.06563
1.0666
1.06805
1.06999
1.07243
1.0754
1.07895
1.08314
1.08736
1.0796
1.06392
1.04853
1.03341
1.01835
1.00329
0.988176
0.972986
0.957694
0.94228
0.926722
0.911001
0.8951
0.878998
0.862678
0.846119
0.829303
0.81221
0.794818
0.777105
0.75905
0.740627
0.72181
0.702571
0.682875
0.662682
0.64194
0.620583
0.59852
0.575624
0.551716
0.526542
0.499746
0.470836
0.439126
0.403724
1.16931
1.16835
1.16035
1.1524
1.14468
1.13725
1.13013
1.12336
1.11694
1.11086
1.10514
1.09977
1.09474
1.09006
1.08571
1.08171
1.07805
1.07473
1.07177
1.06916
1.06692
1.06505
1.06357
1.06248
1.06181
1.06156
1.06176
1.06242
1.06356
1.0652
1.06736
1.07008
1.07337
1.07736
1.08261
1.09315
1.08841
1.06827
1.05261
1.0376
1.02268
1.00775
0.992758
0.977698
0.962544
0.947277
0.931877
0.916327
0.900607
0.884698
0.868582
0.852239
0.835649
0.818792
0.801646
0.78419
0.7664
0.748252
0.729721
0.710778
0.691392
0.671525
0.651132
0.630154
0.608512
0.586098
0.562757
0.538274
0.512354
0.484615
0.454562
0.421169
1.17198
1.16529
1.1575
1.1498
1.14231
1.13509
1.12816
1.12155
1.11527
1.10932
1.10371
1.09843
1.0935
1.08889
1.08463
1.0807
1.07711
1.07387
1.07099
1.06846
1.0663
1.06453
1.06315
1.06218
1.06163
1.06153
1.0619
1.06275
1.06411
1.06601
1.06846
1.07151
1.07518
1.07949
1.08453
1.09012
1.08852
1.07511