/*--------------------------------*- C++ -*----------------------------------*\
| =========                 |                                                 |
| \\      /  F ield         | OpenFOAM: The Open Source CFD Toolbox           |
|  \\    /   O peration     | Version:  2312                                  |
|   \\  /    A nd           | Website:  www.openfoam.com                      |
|    \\/     M anipulation  |                                                 |
\*---------------------------------------------------------------------------*/
FoamFile
{
    version     2.0;
    format      ascii;
    arch        "LSB;label=32;scalar=64";
    class       volScalarField;
    location    "0.02";
    object      T;
}
// * * * * * * * * * * * * * * * * * * * * * * * * * * * * * * * * * * * * * //

dimensions      [0 0 0 1 0 0 0];

internalField   nonuniform List<scalar> 
195600
(
1.02935
1.07158
1.09545
1.10765
1.11327
1.11515
1.11481
1.11307
1.11041
1.10713
1.10344
1.09946
1.09524
1.09078
1.08602
1.08069
1.07399
1.06288
1.05661
1.05751
1.05735
1.05693
1.05625
1.05538
1.05439
1.05333
1.05225
1.05119
1.05022
1.0494
1.04882
1.04857
1.04875
1.04939
1.05007
1.04866
1.04458
1.03661
1.0249
1.01155
0.997454
0.982948
0.968151
0.953081
0.937731
0.922091
0.906151
0.889898
0.873324
0.856418
0.839174
0.821582
0.803627
0.785169
0.766383
0.746786
0.72666
0.706192
0.685364
0.664139
0.642482
0.620354
0.597725
0.574575
0.550904
0.526738
0.50216
0.477347
0.452643
0.428619
0.40589
0.383193
1.02679
1.0694
1.09405
1.10684
1.11283
1.11494
1.11474
1.11307
1.11045
1.10721
1.10354
1.09956
1.09535
1.09091
1.08616
1.08087
1.07436
1.06503
1.0596
1.05927
1.05865
1.05786
1.05695
1.05592
1.05482
1.05368
1.05254
1.05145
1.05045
1.04961
1.04901
1.04875
1.04893
1.04961
1.05045
1.04995
1.04594
1.03713
1.02508
1.01162
0.997504
0.982993
0.96818
0.953088
0.937715
0.92205
0.906084
0.889807
0.873209
0.85628
0.839013
0.821403
0.80344
0.785134
0.766199
0.746491
0.726383
0.705932
0.685108
0.663871
0.642189
0.620031
0.597367
0.574181
0.550469
0.526256
0.501619
0.476728
0.451922
0.427807
0.405307
0.385456
1.02945
1.07208
1.09564
1.1077
1.11335
1.11529
1.115
1.11329
1.11065
1.10739
1.10372
1.09974
1.09553
1.0911
1.08636
1.08112
1.07486
1.06683
1.06116
1.05974
1.05894
1.05814
1.05723
1.0562
1.05508
1.05393
1.05277
1.05166
1.05066
1.04981
1.04921
1.04894
1.04914
1.0499
1.05103
1.05141
1.04724
1.03754
1.02506
1.01141
0.99722
0.982668
0.967821
0.952696
0.937289
0.921591
0.905593
0.889283
0.872651
0.855689
0.838388
0.820745
0.802761
0.784488
0.765416
0.745643
0.725528
0.705064
0.684221
0.662958
0.641241
0.61904
0.596328
0.573087
0.549311
0.525021
0.500281
0.475247
0.45024
0.425901
0.403511
0.386049
1.03389
1.07622
1.09798
1.10892
1.11399
1.11565
1.11521
1.11342
1.11073
1.10744
1.10375
1.09977
1.09556
1.09112
1.08641
1.08124
1.07524
1.06814
1.06225
1.06009
1.05913
1.05832
1.0574
1.05636
1.05522
1.05405
1.05288
1.05176
1.05074
1.04989
1.04928
1.04901
1.04923
1.05009
1.05163
1.05306
1.04874
1.03786
1.02472
1.01081
0.996499
0.981885
0.966992
0.951825
0.936376
0.920637
0.904596
0.888243
0.871567
0.85456
0.837213
0.819524
0.8015
0.783194
0.76401
0.744185
0.724039
0.703544
0.682666
0.661362
0.639595
0.617335
0.594557
0.57124
0.547376
0.522975
0.498089
0.472843
0.447524
0.422762
0.40004
0.383365
1.04073
1.08193
1.10106
1.11047
1.11475
1.11599
1.11533
1.11341
1.11064
1.1073
1.10358
1.09958
1.09536
1.09094
1.08625
1.08117
1.07542
1.06899
1.06288
1.06027
1.0592
1.05837
1.05744
1.05636
1.0552
1.054
1.0528
1.05167
1.05064
1.04978
1.04916
1.04889
1.04913
1.05011
1.05215
1.055
1.05058
1.03799
1.02398
1.00973
0.995279
0.98058
0.965624
0.9504
0.934898
0.919105
0.903011
0.886604
0.869874
0.852811
0.835407
0.817659
0.799576
0.781206
0.761962
0.742081
0.721871
0.701319
0.680384
0.659017
0.63718
0.614842
0.591977
0.568564
0.544586
0.520045
0.49497
0.469448
0.443701
0.41827
0.394574
0.376759
1.05101
1.08924
1.10478
1.11227
1.11555
1.11625
1.11529
1.11318
1.11029
1.10689
1.10312
1.0991
1.09486
1.09044
1.08578
1.08079
1.07531
1.06939
1.06305
1.06025
1.05913
1.05827
1.05729
1.05616
1.05495
1.05371
1.05248
1.05133
1.05028
1.0494
1.04877
1.0485
1.04875
1.04984
1.05244
1.05741
1.05291
1.03779
1.02276
1.00813
0.993499
0.978692
0.963652
0.948356
0.932787
0.91693
0.900772
0.884301
0.867506
0.850377
0.832904
0.815085
0.796928
0.778482
0.759257
0.739295
0.718983
0.698345
0.677329
0.655876
0.633947
0.611511
0.58854
0.565008
0.540894
0.516184
0.490881
0.465023
0.438737
0.412385
0.387006
0.366118
1.06638
1.09808
1.10901
1.11424
1.11635
1.1164
1.11506
1.11272
1.10969
1.10619
1.10237
1.0983
1.09405
1.08963
1.08501
1.08012
1.07488
1.06939
1.06275
1.05999
1.05888
1.05799
1.05695
1.05575
1.05448
1.05319
1.05193
1.05075
1.04969
1.04879
1.04815
1.04786
1.04811
1.04929
1.05242
1.06062
1.05602
1.03705
1.02098
1.00597
0.991133
0.976198
0.961065
0.945691
0.930049
0.91412
0.897892
0.881349
0.864481
0.847277
0.829726
0.811824
0.793573
0.775013
0.755788
0.735792
0.715436
0.694709
0.673573
0.651994
0.629939
0.607374
0.584269
0.560593
0.536315
0.511407
0.48584
0.459595
0.432675
0.405188
0.377469
0.351337
1.08866
1.10679
1.11252
1.11562
1.11667
1.11615
1.11451
1.11198
1.10882
1.10525
1.10139
1.0973
1.09305
1.08864
1.08407
1.07929
1.07429
1.06919
1.06524
1.06253
1.0605
1.05883
1.05726
1.05572
1.05423
1.05281
1.05147
1.05023
1.04913
1.04821
1.04754
1.04723
1.04746
1.04866
1.05209
1.06532
1.06021
1.03534
1.01866
1.00339
0.988413
0.97338
0.958169
0.942718
0.926997
0.910987
0.894674
0.878045
0.861088
0.843791
0.826144
0.808139
0.789771
0.77103
0.751711
0.731736
0.711355
0.690531
0.669257
0.647527
0.625316
0.602593
0.579323
0.555473
0.531004
0.505872
0.480017
0.453357
0.425757
0.396974
0.366434
0.332011
1.12304
1.11601
1.11651
1.11744
1.1174
1.11626
1.1142
1.11144
1.10816
1.10452
1.1006
1.09648
1.09222
1.08782
1.0833
1.07862
1.07385
1.06936
1.06798
1.06506
1.06206
1.05958
1.05748
1.05564
1.05397
1.05244
1.05104
1.04976
1.04865
1.04772
1.04704
1.04671
1.0469
1.04802
1.05108
1.05872
1.0529
1.0329
1.01638
1.00103
0.985953
0.970833
0.955537
0.939998
0.924186
0.908082
0.891674
0.874948
0.857891
0.840492
0.82274
0.804624
0.78613
0.76723
0.747792
0.727769
0.707299
0.686376
0.664993
0.643141
0.620797
0.597932
0.574512
0.550499
0.52585
0.500506
0.474379
0.447328
0.419092
0.389119
0.356203
0.316859
1.14924
1.12633
1.1217
1.12016
1.11878
1.11684
1.11422
1.11113
1.10767
1.10388
1.09987
1.09569
1.0914
1.087
1.0825
1.07792
1.07335
1.06922
1.0672
1.06436
1.06148
1.059
1.05687
1.055
1.0533
1.05175
1.05034
1.04906
1.04794
1.047
1.0463
1.04593
1.04604
1.04696
1.0493
1.05331
1.047
1.02998
1.01388
0.998517
0.983357
0.968145
0.952758
0.93713
0.92123
0.90504
0.888546
0.871733
0.85459
0.837102
0.819257
0.801043
0.78244
0.763416
0.743881
0.723808
0.703268
0.682267
0.660798
0.638849
0.616398
0.593416
0.569871
0.545722
0.520919
0.495392
0.469032
0.441649
0.412895
0.382066
0.34774
0.307085
1.16484
1.13555
1.12657
1.12277
1.12011
1.11741
1.11435
1.11096
1.1073
1.10339
1.0993
1.09508
1.09077
1.08638
1.08193
1.07746
1.07307
1.06917
1.06674
1.06395
1.06116
1.0587
1.05656
1.05466
1.05295
1.0514
1.04998
1.0487
1.04758
1.04663
1.04591
1.04549
1.0455
1.04616
1.04774
1.04949
1.04283
1.0275
1.01185
0.996527
0.981307
0.966011
0.950534
0.934817
0.918826
0.902545
0.885959
0.869054
0.851815
0.834229
0.816283
0.79796
0.779242
0.760093
0.740454
0.720305
0.699682
0.678589
0.65702
0.634962
0.612392
0.589283
0.565602
0.541307
0.516343
0.490633
0.464053
0.436385
0.407232
0.375823
0.340649
0.298957
1.17885
1.14405
1.13155
1.12566
1.12177
1.11831
1.11478
1.11109
1.10721
1.10316
1.09897
1.09469
1.09035
1.08596
1.08155
1.07716
1.07291
1.06916
1.06646
1.06366
1.06092
1.05847
1.05631
1.05439
1.05265
1.05108
1.04964
1.04835
1.0472
1.04623
1.04546
1.04496
1.04483
1.04518
1.04604
1.04653
1.03961
1.02501
1.00972
0.994469
0.979208
0.963834
0.948269
0.932463
0.916387
0.90002
0.883348
0.866354
0.849025
0.831348
0.813306
0.794885
0.776062
0.756807
0.737075
0.716851
0.69615
0.674975
0.653317
0.631163
0.608491
0.585274
0.561479
0.537063
0.511972
0.486125
0.459393
0.431554
0.402207
0.370609
0.335393
0.294359
1.1867
1.15121
1.13597
1.12817
1.12304
1.11879
1.11475
1.11071
1.10659
1.10237
1.09807
1.09373
1.08935
1.08495
1.08057
1.07624
1.07211
1.06844
1.06556
1.06275
1.06005
1.0576
1.05542
1.05348
1.05172
1.05013
1.04868
1.04737
1.04621
1.04521
1.04439
1.04381
1.04352
1.04355
1.04383
1.04405
1.0368
1.02216
1.00725
0.992174
0.976976
0.961614
0.946036
0.930204
0.914093
0.897683
0.880961
0.863913
0.846525
0.828784
0.810675
0.79218
0.77328
0.753944
0.734142
0.713856
0.693093
0.671849
0.650117
0.627881
0.605121
0.581811
0.557917
0.533399
0.508203
0.482251
0.45542
0.427503
0.39814
0.366687
0.332029
0.292411
1.19344
1.15798
1.14076
1.13132
1.12505
1.12003
1.11548
1.11108
1.10671
1.10233
1.09792
1.0935
1.08908
1.08467
1.08032
1.07605
1.07201
1.0684
1.0654
1.06257
1.05989
1.05745
1.05526
1.0533
1.05153
1.04992
1.04846
1.04713
1.04595
1.04491
1.04404
1.04336
1.0429
1.04261
1.04228
1.04095
1.0333
1.01982
1.00527
0.990345
0.975201
0.959842
0.944242
0.928372
0.912211
0.895744
0.878958
0.861841
0.84438
0.826562
0.808372
0.789793
0.770805
0.751382
0.731498
0.711139
0.690301
0.66898
0.647166
0.624844
0.601993
0.578589
0.554599
0.529987
0.504702
0.478674
0.451797
0.4239
0.394692
0.363687
0.330118
0.292965
1.19936
1.16376
1.14515
1.13432
1.127
1.12125
1.11617
1.11141
1.10678
1.10221
1.09767
1.09316
1.08869
1.08427
1.07992
1.07569
1.0717
1.06812
1.06504
1.06217
1.05949
1.05704
1.05483
1.05285
1.05105
1.04942
1.04793
1.04658
1.04536
1.04428
1.04335
1.04255
1.04189
1.04128
1.04039
1.0381
1.03029
1.01732
1.00296
0.988093
0.972941
0.957541
0.941885
0.925953
0.90973
0.8932
0.876352
0.859174
0.841652
0.823772
0.80552
0.786878
0.767827
0.748343
0.728405
0.707997
0.687113
0.665745
0.643882
0.621509
0.598605
0.575147
0.551105
0.526446
0.501126
0.475089
0.448254
0.420501
0.391638
0.36137
0.329371
0.296719
1.19975
1.16765
1.14833
1.13649
1.12835
1.12201
1.11654
1.1115
1.10669
1.10201
1.0974
1.09286
1.08838
1.08398
1.07967
1.07552
1.07162
1.06808
1.06498
1.06213
1.05947
1.05705
1.05486
1.05289
1.0511
1.04948
1.04801
1.04667
1.04546
1.04436
1.04339
1.04251
1.04169
1.0408
1.03952
1.03683
1.02886
1.01589
1.00161
0.986771
0.9716
0.95615
0.940429
0.924427
0.908131
0.891529
0.87461
0.85736
0.839766
0.821814
0.803488
0.784772
0.765646
0.74609
0.726082
0.705609
0.68466
0.663227
0.641296
0.618851
0.595874
0.572342
0.548227
0.523501
0.498128
0.472067
0.44527
0.417674
0.389197
0.359721
0.328981
0.295983
1.20351
1.17155
1.15186
1.13923
1.13039
1.1235
1.11764
1.11233
1.10733
1.10251
1.09782
1.09322
1.08872
1.08432
1.08004
1.07593
1.07207
1.06856
1.06544
1.06257
1.05992
1.0575
1.0553
1.05333
1.05153
1.04991
1.04843
1.04707
1.04584
1.04471
1.04368
1.04269
1.0417
1.04056
1.03899
1.03644
1.02829
1.01481
1.00047
0.985617
0.9704
0.954883
0.939082
0.922996
0.906617
0.889933
0.872933
0.855604
0.837932
0.819904
0.801502
0.782712
0.763513
0.743886
0.723813
0.703279
0.682273
0.660782
0.638795
0.616293
0.59326
0.569673
0.545509
0.520741
0.495345
0.469297
0.442578
0.415189
0.387164
0.358591
0.329499
0.298556
1.20342
1.17399
1.15412
1.1408
1.13126
1.1238
1.11751
1.11188
1.10664
1.10165
1.09683
1.09215
1.0876
1.08317
1.07889
1.07481
1.07098
1.06747
1.06432
1.06143
1.05877
1.05634
1.05414
1.05214
1.05034
1.04869
1.0472
1.04583
1.04457
1.04341
1.04231
1.04125
1.04013
1.03882
1.03713
1.03557
1.02746
1.013
0.998711
0.983954
0.968808
0.953335
0.93756
0.921487
0.90511
0.888422
0.871411
0.854066
0.836375
0.818323
0.799895
0.781076
0.761847
0.742191
0.722089
0.701528
0.680493
0.658974
0.636955
0.61442
0.591351
0.567727
0.543528
0.518732
0.493322
0.467289
0.440645
0.413447
0.385841
0.358158
0.331128
0.306889
1.20513
1.17689
1.15704
1.14321
1.13308
1.12512
1.11843
1.1125
1.10703
1.10188
1.09694
1.09219
1.08759
1.08314
1.07887
1.07481
1.071
1.06751
1.06434
1.06144
1.05878
1.05635
1.05415
1.05215
1.05034
1.04869
1.04718
1.0458
1.04453
1.04333
1.04219
1.04105
1.03982
1.03836
1.03645
1.03365
1.02545
1.01211
0.997954
0.983265
0.968162
0.952711
0.936941
0.92086
0.904464
0.887749
0.870704
0.85332
0.835586
0.817488
0.799011
0.780141
0.76086
0.741153
0.721001
0.700391
0.679309
0.657741
0.635673
0.613089
0.589971
0.5663
0.542056
0.517223
0.491789
0.465759
0.439169
0.412116
0.384835
0.357835
0.332251
0.310682
1.20748
1.17956
1.15984
1.14563
1.13499
1.12655
1.11946
1.11321
1.10749
1.10215
1.09707
1.09221
1.08753
1.08304
1.07874
1.07467
1.07085
1.06735
1.06415
1.06122
1.05853
1.05608
1.05385
1.05183
1.04999
1.04832
1.04679
1.04538
1.04408
1.04284
1.04164
1.04041
1.03906
1.03744
1.03529
1.03182
1.02341
1.0104
0.996242
0.981518
0.966382
0.950896
0.935088
0.918967
0.902534
0.885782
0.868704
0.851289
0.833526
0.815401
0.7969
0.778008
0.758709
0.738987
0.718825
0.698209
0.677124
0.655557
0.633493
0.610916
0.587808
0.564151
0.539928
0.515125
0.489735
0.46377
0.437279
0.410385
0.38336
0.356781
0.331917
0.311892
1.20486
1.18046
1.16124
1.14692
1.136
1.12727
1.11993
1.11349
1.10765
1.10221
1.09708
1.0922
1.08752
1.08306
1.0788
1.07477
1.07101
1.06754
1.06437
1.06147
1.05882
1.0564
1.0542
1.05221
1.0504
1.04875
1.04725
1.04586
1.04456
1.04332
1.0421
1.04082
1.0394
1.03769
1.03544
1.03191
1.02326
1.01005
0.995783
0.980998
0.965813
0.95028
0.934425
0.918258
0.901779
0.884983
0.867863
0.850408
0.832606
0.814444
0.795908
0.776983
0.757652
0.7379
0.717711
0.69707
0.675963
0.654374
0.63229
0.609693
0.586567
0.562895
0.538659
0.513848
0.488456
0.462499
0.436027
0.409163
0.382171
0.355581
0.330419
0.308398
1.20679
1.18239
1.16366
1.14934
1.13821
1.12923
1.12166
1.11504
1.10905
1.10352
1.09832
1.09339
1.08869
1.08422
1.07997
1.07596
1.07222
1.06876
1.0656
1.0627
1.06005
1.05763
1.05543
1.05344
1.05162
1.04997
1.04846
1.04706
1.04575
1.04448
1.04321
1.04187
1.04036
1.03855
1.0363
1.03331
1.02435
1.01031
0.995813
0.980911
0.965635
0.950018
0.934082
0.917838
0.901285
0.88442
0.867235
0.849718
0.83186
0.813645
0.79506
0.776091
0.75672
0.736932
0.716713
0.696046
0.674917
0.653312
0.631214
0.608609
0.585479
0.561806
0.537576
0.512774
0.487395
0.461449
0.434977
0.408079
0.380964
0.354029
0.327977
0.303978
1.20435
1.18227
1.16397
1.14961
1.13825
1.12899
1.12115
1.11429
1.10812
1.10243
1.09712
1.0921
1.08735
1.08284
1.07856
1.07455
1.0708
1.06733
1.06415
1.06124
1.05858
1.05615
1.05394
1.05194
1.05012
1.04846
1.04695
1.04555
1.04423
1.04295
1.04167
1.04031
1.03879
1.03698
1.03487
1.03353
1.02504
1.00965
0.99509
0.98022
0.964984
0.949407
0.933508
0.917297
0.900774
0.883935
0.866773
0.849278
0.831438
0.81324
0.794672
0.775717
0.756362
0.736589
0.716385
0.695734
0.674621
0.653031
0.63095
0.608359
0.585244
0.561587
0.537371
0.512581
0.487208
0.461252
0.434736
0.407718
0.380322
0.352768
0.325379
0.29853
1.20501
1.18323
1.16535
1.15104
1.13952
1.13003
1.12197
1.11492
1.10858
1.10276
1.09735
1.09227
1.08747
1.08294
1.07866
1.07465
1.07091
1.06745
1.06428
1.06137
1.05871
1.05629
1.0541
1.0521
1.0503
1.04866
1.04716
1.04577
1.04446
1.04319
1.04192
1.04056
1.03905
1.03726
1.03509
1.03231
1.02416
1.01032
0.995873
0.981021
0.965798
0.950233
0.934343
0.918137
0.901614
0.884771
0.867601
0.850095
0.832242
0.814029
0.795443
0.776471
0.757097
0.737307
0.717085
0.696418
0.675289
0.653685
0.631589
0.608987
0.58586
0.562193
0.537967
0.513165
0.487771
0.461773
0.435169
0.407965
0.380187
0.351866
0.322978
0.293221
1.20649
1.18455
1.16704
1.15277
1.1411
1.13139
1.12309
1.1158
1.10926
1.10328
1.09773
1.09254
1.08766
1.08306
1.07873
1.07468
1.0709
1.06741
1.0642
1.06126
1.05858
1.05613
1.05392
1.05191
1.05008
1.04843
1.04692
1.04552
1.04421
1.04293
1.04165
1.04028
1.03875
1.03695
1.03468
1.0312
1.02266
1.00927
0.994807
0.979892
0.964621
0.949021
0.933107
0.916882
0.900348
0.883499
0.866328
0.848826
0.830983
0.812785
0.794219
0.775272
0.755928
0.736174
0.715994
0.695374
0.674298
0.652753
0.630722
0.608191
0.585141
0.561556
0.537417
0.512704
0.487394
0.461461
0.434872
0.407585
0.379524
0.350555
0.320438
0.289102
1.2032
1.18417
1.16733
1.15333
1.14172
1.13195
1.12357
1.11621
1.1096
1.10358
1.098
1.09281
1.08793
1.08335
1.07906
1.07504
1.07131
1.06786
1.06469
1.06179
1.05915
1.05674
1.05456
1.05259
1.05081
1.0492
1.04773
1.04637
1.0451
1.04386
1.04261
1.04128
1.03979
1.03803
1.03583
1.03239
1.02348
1.00983
0.99523
0.980234
0.964909
0.949271
0.933327
0.917082
0.900532
0.883673
0.866497
0.848994
0.831154
0.812962
0.794407
0.775474
0.756147
0.736414
0.716258
0.695665
0.67462
0.653108
0.631114
0.608622
0.585615
0.562077
0.537986
0.51332
0.488049
0.462134
0.435517
0.408104
0.379737
0.350125
0.318706
0.284284
1.20478
1.18566
1.1694
1.15567
1.14414
1.13435
1.12589
1.11845
1.11177
1.10569
1.10007
1.09484
1.08994
1.08536
1.08106
1.07705
1.07332
1.06988
1.06671
1.06381
1.06116
1.05876
1.05658
1.05461
1.05283
1.05122
1.04975
1.04839
1.04712
1.04588
1.04463
1.0433
1.04182
1.04009
1.03806
1.03547
1.02601
1.01131
0.99641
0.981265
0.96583
0.9501
0.934079
0.917765
0.901156
0.884247
0.867028
0.84949
0.831621
0.813408
0.794838
0.775897
0.756569
0.736841
0.716697
0.696123
0.675103
0.653623
0.631669
0.609223
0.58627
0.562792
0.538768
0.514174
0.488973
0.463116
0.436525
0.409068
0.380524
0.350508
0.318347
0.282987
1.20088
1.18404
1.16826
1.15474
1.14323
1.13337
1.1248
1.11723
1.11043
1.10424
1.09853
1.09323
1.08828
1.08365
1.07932
1.07529
1.07154
1.06808
1.0649
1.06199
1.05933
1.05692
1.05474
1.05278
1.051
1.04941
1.04796
1.04663
1.04539
1.0442
1.043
1.04173
1.04034
1.03875
1.03704
1.03676
1.02829
1.01185
0.996839
0.981709
0.966305
0.950614
0.934636
0.918371
0.901813
0.884955
0.86779
0.850307
0.832493
0.814337
0.795824
0.776941
0.757672
0.738004
0.717921
0.697409
0.676453
0.655039
0.633151
0.610774
0.587893
0.56449
0.540545
0.516031
0.490912
0.465131
0.438598
0.411161
0.382565
0.352377
0.319862
0.283862
1.20131
1.18391
1.16855
1.15525
1.14382
1.13395
1.12532
1.11767
1.11079
1.10453
1.09876
1.09342
1.08844
1.0838
1.07947
1.07544
1.07171
1.06826
1.0651
1.0622
1.05957
1.05719
1.05504
1.0531
1.05137
1.04981
1.04841
1.04714
1.04596
1.04483
1.04371
1.04255
1.04127
1.03981
1.03812
1.03602
1.02839
1.01412
0.999305
0.984191
0.968791
0.953108
0.937141
0.920889
0.904345
0.887502
0.870351
0.852881
0.835081
0.816937
0.798438
0.779568
0.760313
0.74066
0.720594
0.700099
0.679162
0.657769
0.635904
0.613555
0.590705
0.567338
0.543436
0.518974
0.493916
0.468207
0.441754
0.414404
0.3859
0.355818
0.323459
0.287638
1.20234
1.18457
1.16952
1.15641
1.14501
1.13507
1.12633
1.11855
1.11154
1.10515
1.09927
1.09383
1.08877
1.08405
1.07966
1.07558
1.0718
1.06831
1.06511
1.06218
1.05953
1.05712
1.05496
1.05301
1.05128
1.04973
1.04835
1.0471
1.04595
1.04487
1.04381
1.04271
1.04151
1.04014
1.03841
1.03549
1.02724
1.01361
0.998838
0.983681
0.968248
0.952549
0.936581
0.920338
0.903814
0.887001
0.869888
0.852465
0.83472
0.816638
0.798208
0.779416
0.760246
0.740684
0.720717
0.700329
0.679506
0.658235
0.6365
0.614289
0.591588
0.568381
0.544653
0.520382
0.495538
0.470072
0.443905
0.416898
0.388825
0.359324
0.327908
0.294283
1.19912
1.18366
1.16925
1.15649
1.1453
1.13547
1.12678
1.11901
1.112
1.10561
1.09974
1.09431
1.08926
1.08457
1.08021
1.07616
1.07242
1.06897
1.06581
1.06293
1.06032
1.05796
1.05584
1.05396
1.05228
1.0508
1.04948
1.04831
1.04725
1.04626
1.04531
1.04433
1.04327
1.04206
1.04052
1.0377
1.02889
1.01498
1.00008
0.984864
0.969402
0.953692
0.937727
0.921499
0.904998
0.888217
0.871144
0.853766
0.836073
0.81805
0.799683
0.780958
0.761861
0.742377
0.722491
0.702188
0.681455
0.660277
0.63864
0.616532
0.59394
0.57085
0.547251
0.523125
0.498452
0.473196
0.447298
0.420654
0.393082
0.364289
0.333845
0.30117
1.20057
1.18535
1.17147
1.15906
1.14807
1.13833
1.12968
1.12192
1.1149
1.10849
1.10259
1.09714
1.09208
1.08738
1.08301
1.07895
1.0752
1.07175
1.06859
1.0657
1.06308
1.06072
1.0586
1.05672
1.05505
1.05357
1.05228
1.05113
1.0501
1.04916
1.04826
1.04736
1.04639
1.04532
1.0441
1.04245
1.03284
1.01761
1.00235
0.986987
0.971424
0.955636
0.939608
0.923332
0.906797
0.889991
0.872905
0.855525
0.837839
0.819832
0.801491
0.782802
0.763748
0.744316
0.724491
0.704257
0.683601
0.662508
0.640964
0.618959
0.596479
0.573515
0.550058
0.526097
0.501624
0.476621
0.45106
0.424883
0.397976
0.370127
0.341036
0.311024
1.19522
1.18268
1.16918
1.15702
1.14618
1.13651
1.12785
1.12006
1.11299
1.10653
1.10058
1.09508
1.08998
1.08524
1.08084
1.07676
1.073
1.06953
1.06635
1.06346
1.06084
1.05849
1.05638
1.05452
1.05287
1.05144
1.05019
1.04911
1.04816
1.04731
1.04653
1.04577
1.04499
1.04416
1.04345
1.04493
1.03684
1.01937
1.00397
0.988631
0.973108
0.957368
0.941398
0.925187
0.908723
0.891996
0.874992
0.857699
0.840104
0.822192
0.803949
0.785359
0.766409
0.747083
0.727366
0.707243
0.6867
0.665722
0.644298
0.622414
0.600061
0.577232
0.55392
0.530125
0.505849
0.4811
0.455886
0.430211
0.404049
0.377267
0.349368
0.318717
1.19582
1.1817
1.1686
1.15674
1.14609
1.13653
1.12793
1.12016
1.1131
1.10663
1.10067
1.09517
1.09007
1.08534
1.08096
1.0769
1.07315
1.06971
1.06657
1.06371
1.06113
1.05882
1.05677
1.05496
1.05339
1.05203
1.05087
1.04989
1.04905
1.04834
1.04772
1.04714
1.04657
1.04596
1.0453
1.04444
1.03774
1.02326
1.00818
0.992882
0.977371
0.961644
0.945693
0.929505
0.913069
0.896373
0.879404
0.862148
0.844592
0.826721
0.808521
0.789976
0.771073
0.751795
0.732129
0.712058
0.691569
0.670649
0.649284
0.627463
0.605177
0.582422
0.559196
0.535507
0.511369
0.486816
0.461897
0.43669
0.411297
0.385792
0.359899
0.331074
1.19636
1.18188
1.16905
1.1574
1.14685
1.13733
1.12871
1.12089
1.11375
1.1072
1.10117
1.09558
1.09041
1.08561
1.08117
1.07705
1.07326
1.06978
1.06661
1.06372
1.06112
1.0588
1.05675
1.05495
1.05339
1.05206
1.05095
1.05003
1.04927
1.04866
1.04816
1.04772
1.04732
1.04688
1.04621
1.04431
1.03674
1.02315
1.00822
0.992922
0.977414
0.961706
0.945788
0.929649
0.913275
0.896652
0.879767
0.862606
0.845155
0.827399
0.809323
0.790913
0.772152
0.753026
0.733519
0.713617
0.693304
0.672567
0.651393
0.629771
0.607692
0.585153
0.562156
0.538713
0.514853
0.490627
0.466127
0.441503
0.417009
0.393091
0.370717
0.353209
1.19369
1.18075
1.16849
1.15721
1.14693
1.13758
1.12909
1.12134
1.11426
1.10775
1.10175
1.09619
1.09105
1.08628
1.08187
1.07779
1.07403
1.07059
1.06745
1.06462
1.06207
1.0598
1.05781
1.05608
1.0546
1.05337
1.05236
1.05155
1.05094
1.05048
1.05016
1.04993
1.04977
1.04959
1.04921
1.04747
1.03913
1.02522
1.01019
0.994868
0.979374
0.963699
0.94783
0.931751
0.91545
0.89891
0.882117
0.865056
0.847713
0.830073
0.812119
0.793836
0.775209
0.756221
0.736858
0.717102
0.69694
0.676356
0.655337
0.633871
0.611951
0.589572
0.566738
0.543465
0.519789
0.495778
0.47155
0.447315
0.423435
0.400569
0.379998
0.364196
1.19488
1.18287
1.17111
1.16017
1.15013
1.14094
1.13254
1.12486
1.1178
1.1113
1.1053
1.09974
1.09458
1.0898
1.08536
1.08127
1.0775
1.07404
1.07089
1.06804
1.06548
1.06321
1.06122
1.05949
1.05803
1.05682
1.05585
1.0551
1.05455
1.05419
1.05398
1.05389
1.0539
1.05397
1.0541
1.05389
1.04448
1.02892
1.01346
0.997998
0.982425
0.966699
0.950798
0.934703
0.9184
0.901872
0.885105
0.868083
0.850789
0.83321
0.815329
0.797129
0.778596
0.759712
0.740461
0.720827
0.700794
0.680347
0.659471
0.638154
0.616385
0.594161
0.571483
0.548368
0.524851
0.501003
0.476954
0.45293
0.429323
0.406829
0.386694
0.371275
1.18797
1.17924
1.16776
1.15709
1.14725
1.13819
1.12987
1.12223
1.11519
1.10868
1.10266
1.09709
1.09191
1.08711
1.08266
1.07855
1.07477
1.07131
1.06816
1.06531
1.06276
1.06051
1.05854
1.05685
1.05544
1.0543
1.0534
1.05275
1.05233
1.05211
1.05208
1.05221
1.05248
1.0529
1.05376
1.05771
1.05039
1.03192
1.01625
1.00083
0.985312
0.969653
0.953828
0.93782
0.921612
0.905189
0.888534
0.871631
0.854464
0.837017
0.819274
0.801218
0.782833
0.764102
0.745008
0.725535
0.705665
0.685383
0.664673
0.64352
0.621914
0.599846
0.577315
0.554332
0.530928
0.507165
0.483159
0.459116
0.435388
0.412562
0.39153
0.373352
1.18903
1.17752
1.16641
1.15606
1.14646
1.13759
1.12941
1.12187
1.1149
1.10845
1.10248
1.09694
1.0918
1.08703
1.08262
1.07855
1.07481
1.0714
1.06829
1.0655
1.06301
1.06083
1.05894
1.05734
1.05602
1.05498
1.05422
1.05371
1.05345
1.05343
1.05362
1.05401
1.05458
1.0553
1.05619
1.05709
1.05175
1.03732
1.02216
1.00682
0.991337
0.975703
0.959909
0.943939
0.927777
0.911405
0.894807
0.877966
0.860865
0.843489
0.82582
0.807843
0.789539
0.770893
0.751888
0.732505
0.712729
0.692541
0.671925
0.650865
0.629346
0.607357
0.584891
0.561951
0.538552
0.514738
0.49059
0.466259
0.442005
0.418247
0.395601
0.374665
1.18874
1.17728
1.16639
1.15624
1.14678
1.13799
1.12985
1.1223
1.11531
1.10882
1.1028
1.09721
1.09201
1.08719
1.08273
1.07862
1.07484
1.07138
1.06825
1.06544
1.06294
1.06075
1.05887
1.05729
1.05601
1.05503
1.05434
1.05393
1.05379
1.05391
1.05429
1.05489
1.05571
1.05667
1.05753
1.05713
1.05064
1.03741
1.02253
1.00725
0.991814
0.976244
0.960531
0.944659
0.928609
0.912362
0.895902
0.879211
0.862272
0.845069
0.827585
0.809803
0.791705
0.773274
0.754492
0.735342
0.715806
0.695864
0.675499
0.654692
0.633425
0.61168
0.589443
0.566703
0.543458
0.519718
0.495516
0.470921
0.44606
0.421158
0.396662
0.373843
1.18711
1.17602
1.16568
1.1559
1.14672
1.13813
1.13014
1.12271
1.1158
1.10938
1.10341
1.09785
1.0927
1.08791
1.08348
1.0794
1.07566
1.07224
1.06915
1.06639
1.06395
1.06182
1.06002
1.05852
1.05735
1.05648
1.05593
1.05567
1.05572
1.05606
1.05668
1.05757
1.05871
1.06004
1.06131
1.0611
1.05368
1.04006
1.02507
1.00981
0.994426
0.978941
0.963332
0.947578
0.931658
0.915553
0.899244
0.882714
0.865945
0.84892
0.831621
0.81403
0.79613
0.777903
0.75933
0.740392
0.721071
0.701346
0.681196
0.660601
0.639537
0.617982
0.595911
0.5733
0.550121
0.52635
0.501961
0.47693
0.451226
0.424807
0.397569
0.369024
1.18758
1.17854
1.16875
1.15931
1.15036
1.14195
1.13408
1.12673
1.11987
1.11347
1.10751
1.10195
1.09678
1.09198
1.08753
1.08342
1.07965
1.07621
1.0731
1.07032
1.06786
1.06573
1.06393
1.06245
1.06129
1.06047
1.05997
1.05979
1.05994
1.06041
1.06119
1.06228
1.06368
1.06539
1.0674
1.06916
1.06043
1.04475
1.02919
1.01376
0.998329
0.98283
0.96723
0.951503
0.935626
0.919579
0.903343
0.886898
0.870228
0.853314
0.836139
0.818685
0.800933
0.782865
0.764461
0.745703
0.726569
0.707039
0.68709
0.666697
0.645834
0.624471
0.602573
0.580101
0.557005
0.53322
0.508663
0.483212
0.456689
0.428807
0.39911
0.367062
1.17874
1.17392
1.16436
1.15517
1.14644
1.1382
1.13045
1.12319
1.11639
1.11003
1.10409
1.09855
1.09339
1.08859
1.08415
1.08005
1.07628
1.07285
1.06975
1.06699
1.06455
1.06245
1.06069
1.05926
1.05818
1.05744
1.05704
1.057
1.0573
1.05796
1.05897
1.06033
1.06206
1.06422
1.06727
1.0745
1.06851
1.04897
1.03306
1.01766
1.00231
0.986898
0.971401
0.955786
0.940032
0.924118
0.908024
0.891732
0.875224
0.858481
0.841485
0.824218
0.806662
0.788796
0.770603
0.75206
0.733146
0.71384
0.694117
0.673949
0.653307
0.632154
0.610447
0.588133
0.565139
0.541368
0.516684
0.490887
0.46367
0.434543
0.402641
0.366167
1.18074
1.17229
1.16306
1.15415
1.14566
1.13761
1.13003
1.12289
1.1162
1.10993
1.10406
1.09858
1.09348
1.08873
1.08433
1.08028
1.07656
1.07319
1.07014
1.06743
1.06506
1.06303
1.06135
1.06001
1.05903
1.0584
1.05814
1.05825
1.05874
1.0596
1.06086
1.06251
1.06457
1.06707
1.07011
1.07361
1.06976
1.05505
1.03977
1.02448
1.00916
0.993795
0.978341
0.962777
0.947081
0.93123
0.915208
0.898994
0.88257
0.865918
0.849021
0.831858
0.814412
0.796664
0.778592
0.760177
0.741397
0.722229
0.702646
0.682621
0.662121
0.641106
0.619528
0.597322
0.574403
0.550651
0.525896
0.49989
0.472262
0.442453
0.409596
0.372264
1.17958
1.17189
1.16273
1.15396
1.14559
1.13762
1.13009
1.12298
1.11629
1.11001
1.10413
1.09862
1.09348
1.0887
1.08427
1.08019
1.07644
1.07304
1.06997
1.06725
1.06488
1.06285
1.06118
1.05987
1.05894
1.05837
1.05819
1.0584
1.05902
1.06004
1.06148
1.06336
1.06567
1.06842
1.07141
1.07333
1.06817
1.05498
1.04008
1.02492
1.0097
0.994446
0.979115
0.963687
0.948137
0.932446
0.916593
0.900559
0.884327
0.867877
0.851191
0.834251
0.817037
0.79953
0.781709
0.763554
0.745042
0.72615
0.706851
0.687117
0.666912
0.646196
0.624916
0.603004
0.580365
0.55687
0.532331
0.506478
0.478921
0.449096
0.416278
0.380027
1.17942
1.17069
1.16202
1.15355
1.1454
1.1376
1.1302
1.12319
1.11658
1.11036
1.10452
1.09905
1.09394
1.08919
1.08479
1.08073
1.07702
1.07364
1.07062
1.06794
1.06562
1.06365
1.06206
1.06084
1.06
1.05956
1.05952
1.05989
1.0607
1.06194
1.06364
1.06581
1.06846
1.07159
1.07494
1.07695
1.07069
1.05721
1.04231
1.02725
1.01216
0.997046
0.981871
0.966607
0.951232
0.935724
0.920063
0.90423
0.888205
0.871971
0.855509
0.838798
0.821821
0.804558
0.786986
0.769086
0.750834
0.732206
0.713175
0.693713
0.673784
0.653346
0.632347
0.610716
0.588357
0.565136
0.540862
0.515263
0.487948
0.458351
0.425621
0.388135
1.1788
1.17347
1.16526
1.15706
1.1491
1.14145
1.13414
1.12721
1.12064
1.11444
1.10861
1.10313
1.09801
1.09324
1.08881
1.08473
1.08098
1.07759
1.07454
1.07184
1.0695
1.06753
1.06593
1.06473
1.06392
1.06352
1.06354
1.064
1.06492
1.06631
1.06818
1.07056
1.07348
1.07697
1.0811
1.08526
1.07747
1.06178
1.04638
1.03124
1.01617
1.0011
0.985988
0.970797
0.955507
0.940096
0.924545
0.908834
0.892944
0.876857
0.860554
0.844015
0.827222
0.810153
0.792788
0.775106
0.757083
0.738695
0.719916
0.700717
0.681063
0.660915
0.640221
0.618915
0.596905
0.574066
0.550218
0.525108
0.498382
0.469547
0.43792
0.402612
1.16929
1.16827
1.16023
1.15222
1.14445
1.13696
1.12979
1.12296
1.11648
1.11035
1.10457
1.09914
1.09405
1.08931
1.08491
1.08084
1.07712
1.07375
1.07072
1.06805
1.06575
1.06382
1.06228
1.06113
1.0604
1.06009
1.06023
1.06083
1.06191
1.06349
1.06559
1.06825
1.07149
1.07541
1.0806
1.09108
1.0863
1.06615
1.05048
1.03546
1.02053
1.00558
0.990593
0.975531
0.960378
0.945114
0.929721
0.914179
0.89847
0.882575
0.866475
0.850151
0.833582
0.816749
0.799629
0.782201
0.764443
0.746329
0.727834
0.70893
0.689585
0.669761
0.649415
0.628485
0.606895
0.584535
0.561251
0.53683
0.510976
0.483309
0.453333
0.420028
1.17196
1.16522
1.15737
1.14962
1.14208
1.13481
1.12782
1.12116
1.11482
1.10882
1.10315
1.09782
1.09282
1.08816
1.08384
1.07985
1.07621
1.07291
1.06996
1.06738
1.06516
1.06333
1.06189
1.06086
1.06025
1.06009
1.0604
1.06119
1.06249
1.06433
1.06673
1.06971