/*--------------------------------*- C++ -*----------------------------------*\
| =========                 |                                                 |
| \\      /  F ield         | OpenFOAM: The Open Source CFD Toolbox           |
|  \\    /   O peration     | Version:  2312                                  |
|   \\  /    A nd           | Website:  www.openfoam.com                      |
|    \\/     M anipulation  |                                                 |
\*---------------------------------------------------------------------------*/
FoamFile
{
    version     2.0;
    format      ascii;
    arch        "LSB;label=32;scalar=64";
    class       volScalarField;
    location    "0.01";
    object      T;
}
// * * * * * * * * * * * * * * * * * * * * * * * * * * * * * * * * * * * * * //

dimensions      [0 0 0 1 0 0 0];

internalField   nonuniform List<scalar> 
195600
(
1.02893
1.07006
1.09262
1.10337
1.10741
1.10763
1.10555
1.102
1.09748
1.09229
1.08665
1.08069
1.07446
1.06798
1.06117
1.05381
1.0451
1.03211
1.02385
1.02252
1.02016
1.01754
1.01468
1.01164
1.0085
1.00531
1.00211
0.998964
0.995928
0.993068
0.990463
0.98821
0.986403
0.985069
0.983818
0.980668
0.975099
0.965963
0.953414
0.939425
0.924817
0.909912
0.894819
0.879554
0.864111
0.84848
0.832651
0.816613
0.800354
0.783867
0.767143
0.750173
0.732941
0.715318
0.697464
0.678937
0.659991
0.640796
0.621331
0.601564
0.581458
0.560977
0.54009
0.518778
0.497037
0.474888
0.452401
0.42973
0.407177
0.385245
0.364471
0.34369
1.02637
1.06787
1.09122
1.10254
1.10696
1.1074
1.10545
1.10198
1.0975
1.09234
1.08672
1.08077
1.07455
1.06808
1.06128
1.05395
1.04544
1.03418
1.02671
1.02419
1.02138
1.01841
1.01532
1.01212
1.00887
1.00561
1.00236
0.999173
0.99611
0.99323
0.99061
0.988347
0.986542
0.985242
0.984142
0.981845
0.976335
0.966418
0.953554
0.93946
0.924836
0.909927
0.89482
0.879537
0.864073
0.848421
0.83257
0.81651
0.800231
0.783724
0.766981
0.749995
0.732757
0.715274
0.697285
0.678657
0.65973
0.64055
0.621091
0.601313
0.581186
0.560678
0.539761
0.518417
0.49664
0.47445
0.45191
0.429171
0.406527
0.384516
0.36395
0.345735
1.02903
1.07053
1.09277
1.10337
1.10743
1.1077
1.10566
1.10214
1.09764
1.09247
1.08684
1.08088
1.07466
1.06819
1.06142
1.05414
1.04585
1.03586
1.02816
1.02457
1.02159
1.0186
1.01551
1.01231
1.00905
1.00576
1.0025
0.999307
0.996237
0.993352
0.990729
0.988466
0.986676
0.98545
0.984629
0.983151
0.977484
0.96674
0.953473
0.93921
0.924517
0.909573
0.894438
0.879126
0.863635
0.847955
0.832077
0.815989
0.799683
0.783148
0.766376
0.749364
0.73211
0.71466
0.696548
0.677864
0.658933
0.639744
0.620269
0.600471
0.580314
0.55977
0.538811
0.51742
0.495588
0.473329
0.450699
0.427832
0.405012
0.382803
0.362344
0.346289
1.03345
1.07464
1.09507
1.10453
1.10801
1.10798
1.10579
1.10219
1.09763
1.09243
1.08678
1.08081
1.07459
1.06812
1.06137
1.05415
1.04612
1.03702
1.0291
1.0248
1.02166
1.01866
1.01556
1.01235
1.00907
1.00576
1.00249
0.999285
0.996207
0.993317
0.99069
0.988426
0.986657
0.985532
0.985091
0.984591
0.978793
0.966939
0.953065
0.938557
0.923763
0.908766
0.893593
0.878247
0.862722
0.847009
0.831096
0.814974
0.798632
0.782061
0.765252
0.748202
0.730915
0.71344
0.695231
0.676504
0.657548
0.638336
0.618834
0.599001
0.578802
0.558209
0.537194
0.515737
0.493828
0.471473
0.448715
0.425661
0.402564
0.379982
0.359234
0.343904
1.04027
1.0803
1.09808
1.10599
1.10867
1.10823
1.10581
1.10206
1.09742
1.09217
1.08649
1.0805
1.07426
1.0678
1.06107
1.05393
1.04615
1.0377
1.02956
1.02482
1.02157
1.01855
1.01544
1.0122
1.00889
1.00556
1.00227
0.999048
0.995961
0.993064
0.990431
0.988167
0.986419
0.985409
0.985436
0.986275
0.980373
0.966935
0.952261
0.937442
0.922515
0.907447
0.892221
0.87683
0.861262
0.845507
0.829552
0.813388
0.797003
0.780387
0.763532
0.746434
0.729101
0.711573
0.693316
0.674544
0.655536
0.636277
0.616729
0.596845
0.576588
0.555928
0.53484
0.5133
0.491293
0.468817
0.445892
0.422595
0.399119
0.375944
0.354334
0.338002
1.05052
1.08755
1.10171
1.10768
1.10935
1.10836
1.10562
1.10169
1.09693
1.0916
1.08587
1.07985
1.0736
1.06713
1.06043
1.05338
1.04585
1.03789
1.02953
1.0246
1.0213
1.01825
1.01509
1.01181
1.00845
1.00508
1.00176
0.998527
0.995427
0.992521
0.989881
0.987613
0.985883
0.984985
0.985539
0.988356
0.982384
0.966585
0.950963
0.935799
0.920717
0.905556
0.890262
0.874814
0.859194
0.843388
0.827383
0.811169
0.794733
0.778065
0.761157
0.744003
0.72661
0.709021
0.690789
0.671951
0.652858
0.633528
0.613914
0.593959
0.573625
0.552883
0.531704
0.510064
0.487939
0.465316
0.442192
0.418599
0.394646
0.370653
0.347546
0.328477
1.06586
1.09631
1.10582
1.10953
1.11001
1.10835
1.10523
1.10106
1.09614
1.09071
1.08492
1.07886
1.07258
1.06612
1.05944
1.05249
1.04519
1.03765
1.029
1.02411
1.02082
1.01774
1.01452
1.01117
1.00776
1.00435
1.00099
0.997738
0.994625
0.991709
0.989062
0.986788
0.985066
0.984252
0.98531
0.991144
0.985079
0.965697
0.949111
0.933599
0.918341
0.903073
0.887704
0.872194
0.856518
0.840658
0.8246
0.808331
0.791839
0.775114
0.758145
0.740925
0.723457
0.705775
0.687552
0.668694
0.649569
0.630168
0.610454
0.590392
0.569952
0.549101
0.527809
0.506045
0.48378
0.460985
0.437631
0.413696
0.389182
0.364181
0.338987
0.315234
1.08809
1.10491
1.10919
1.11074
1.11015
1.10791
1.10447
1.1001
1.09505
1.08955
1.08371
1.07762
1.07134
1.06489
1.05825
1.05141
1.04434
1.03718
1.03112
1.02627
1.02209
1.01825
1.01452
1.01084
1.00723
1.00369
1.00026
0.996954
0.99381
0.990875
0.988213
0.985925
0.984191
0.983399
0.984751
0.995284
0.988737
0.963859
0.946715
0.930983
0.915601
0.900255
0.884827
0.86926
0.853525
0.837603
0.82148
0.805145
0.788584
0.771787
0.754742
0.737442
0.719879
0.702044
0.683748
0.664919
0.645783
0.626304
0.606475
0.586286
0.565714
0.544729
0.523297
0.501385
0.478955
0.455966
0.432361
0.408061
0.382945
0.356791
0.329081
0.297909
1.12241
1.11401
1.11302
1.11237
1.11067
1.10779
1.10393
1.09931
1.09413
1.08854
1.08264
1.07651
1.07022
1.06377
1.05718
1.05043
1.04359
1.037
1.03344
1.02838
1.02325
1.01863
1.0144
1.01042
1.00663
1.003
0.999514
0.996183
0.993028
0.990088
0.987421
0.985122
0.983362
0.982507
0.98352
0.988854
0.981669
0.961342
0.944369
0.928568
0.913111
0.897698
0.882205
0.86657
0.850763
0.834767
0.81857
0.802158
0.78552
0.768642
0.751513
0.734123
0.716458
0.698489
0.680096
0.661235
0.642029
0.622471
0.602553
0.582263
0.561581
0.540476
0.518916
0.496865
0.47428
0.451108
0.427265
0.402623
0.376944
0.349731
0.319902
0.284333
1.14856
1.12421
1.11805
1.11491
1.11184
1.10814
1.10371
1.09875
1.09338
1.08764
1.08164
1.07545
1.06912
1.06266
1.05609
1.04943
1.04278
1.03654
1.03235
1.02738
1.02236
1.01775
1.01349
1.00948
1.00567
1.00203
0.998537
0.995204
0.992049
0.989107
0.986429
0.9841
0.982274
0.981242
0.981589
0.983551
0.975934
0.958409
0.941839
0.926038
0.910517
0.895031
0.879466
0.863762
0.847887
0.831825
0.815562
0.799084
0.782378
0.765431
0.74823
0.730762
0.713009
0.694938
0.676469
0.657572
0.638313
0.618694
0.598707
0.578339
0.557568
0.536366
0.514701
0.492535
0.469819
0.446489
0.422443
0.39751
0.371374
0.343402
0.312319
0.275586
1.16411
1.13333
1.12279
1.11734
1.11297
1.1085
1.10361
1.09835
1.09277
1.0869
1.08081
1.07457
1.06822
1.06177
1.05525
1.04868
1.0422
1.0362
1.03161
1.02667
1.02175
1.01715
1.01288
1.00886
1.00504
1.00139
0.997901
0.994573
0.991423
0.98848
0.985789
0.983422
0.981506
0.980244
0.979888
0.979754
0.97183
0.9559
0.939755
0.924007
0.908442
0.892891
0.877255
0.86148
0.845534
0.8294
0.813064
0.796512
0.779731
0.762705
0.745422
0.727867
0.710019
0.691846
0.673292
0.654336
0.635011
0.615319
0.59525
0.574791
0.553921
0.532612
0.510831
0.48854
0.465686
0.442197
0.41796
0.392777
0.36629
0.337806
0.305971
0.268318
1.17807
1.14172
1.12762
1.12007
1.11444
1.1092
1.10383
1.09824
1.09244
1.08642
1.08023
1.07393
1.06753
1.06108
1.05459
1.0481
1.04176
1.03589
1.03104
1.0261
1.02123
1.01664
1.01235
1.0083
1.00446
1.0008
0.997295
0.993956
0.990794
0.987831
0.985106
0.982675
0.980632
0.979088
0.978081
0.976779
0.968626
0.953389
0.937599
0.92193
0.906339
0.890727
0.875023
0.859178
0.843165
0.826964
0.810561
0.79394
0.777087
0.759988
0.74263
0.724995
0.707063
0.688803
0.670174
0.65116
0.631774
0.612015
0.591874
0.571336
0.550381
0.528982
0.507105
0.484712
0.461749
0.438143
0.413775
0.388444
0.36179
0.333143
0.301278
0.264221
1.18589
1.14879
1.13192
1.12243
1.11554
1.10949
1.1036
1.09765
1.0916
1.0854
1.07911
1.07273
1.06629
1.05983
1.05337
1.04695
1.04071
1.03492
1.0299
1.02495
1.02011
1.01553
1.01123
1.00717
1.00331
0.999638
0.996128
0.992783
0.989612
0.986632
0.983871
0.981372
0.979192
0.977366
0.97582
0.974282
0.965825
0.95057
0.935152
0.919657
0.904137
0.888548
0.872843
0.856986
0.840952
0.824723
0.808285
0.791624
0.774728
0.757582
0.740171
0.72248
0.704486
0.686163
0.667478
0.648417
0.628982
0.609169
0.588968
0.568364
0.547336
0.525858
0.503898
0.481418
0.458366
0.434671
0.410219
0.384824
0.358159
0.329647
0.298288
0.262506
1.1926
1.15548
1.13658
1.12542
1.11738
1.11054
1.10412
1.09781
1.0915
1.08513
1.07872
1.07226
1.06578
1.05931
1.05286
1.0465
1.04035
1.03462
1.02949
1.02451
1.0197
1.01512
1.01082
1.00674
1.00287
0.999187
0.995668
0.992314
0.989129
0.986125
0.983319
0.980738
0.978403
0.976286
0.974183
0.971208
0.962405
0.948242
0.933168
0.917829
0.90237
0.886797
0.871082
0.855201
0.839132
0.82286
0.806374
0.789661
0.772708
0.755501
0.738027
0.720268
0.702203
0.683809
0.665059
0.645939
0.626444
0.606568
0.5863
0.565625
0.544521
0.522964
0.500924
0.478363
0.455236
0.431477
0.406988
0.381614
0.355094
0.326988
0.29661
0.263042
1.19849
1.16118
1.14086
1.12828
1.11917
1.11158
1.10463
1.09794
1.09136
1.08481
1.07826
1.07171
1.06518
1.05867
1.05223
1.04591
1.03981
1.03411
1.02889
1.02389
1.01907
1.0145
1.01017
1.00608
1.00219
0.998486
0.994951
0.99158
0.988372
0.985333
0.982471
0.979792
0.977286
0.974875
0.972266
0.968401
0.959465
0.945788
0.930904
0.915635
0.900181
0.884581
0.868827
0.8529
0.836784
0.820466
0.803934
0.787175
0.770176
0.752923
0.735402
0.717595
0.699482
0.681041
0.66225
0.643094
0.623565
0.603654
0.583349
0.562633
0.541488
0.519887
0.497805
0.475207
0.452052
0.428288
0.403841
0.3786
0.352392
0.324951
0.295984
0.266457
1.19885
1.165
1.14394
1.13032
1.12038
1.11218
1.10482
1.09786
1.09109
1.08441
1.07779
1.0712
1.06466
1.05818
1.05178
1.04553
1.03951
1.03385
1.02862
1.02362
1.01884
1.01429
1.00998
1.00591
1.00203
0.998347
0.994831
0.991475
0.988276
0.985232
0.982339
0.979588
0.97694
0.974283
0.971314
0.967091
0.958015
0.944359
0.929553
0.914321
0.898859
0.883224
0.867419
0.851437
0.835265
0.818891
0.802302
0.785487
0.768431
0.751121
0.733541
0.715674
0.697501
0.679001
0.660155
0.640947
0.621366
0.601401
0.58104
0.560266
0.539059
0.517396
0.495252
0.472597
0.449398
0.425617
0.401206
0.376108
0.350249
0.32352
0.295685
0.265845
1.20259
1.16884
1.14737
1.13295
1.12227
1.11352
1.10576
1.09851
1.09154
1.08473
1.078
1.07136
1.06479
1.0583
1.05193
1.04572
1.03974
1.03411
1.02885
1.02384
1.01906
1.01452
1.01021
1.00613
1.00226
0.998567
0.995047
0.991686
0.988475
0.985406
0.982464
0.979623
0.976826
0.97394
0.970714
0.966629
0.957393
0.943268
0.928422
0.913183
0.89769
0.882002
0.866134
0.850085
0.833845
0.817404
0.800751
0.783872
0.766754
0.749382
0.731741
0.713814
0.695582
0.677026
0.658127
0.63887
0.619243
0.599233
0.578826
0.558005
0.536752
0.515044
0.492858
0.47017
0.446953
0.423184
0.398846
0.373935
0.348483
0.322566
0.29621
0.268214
1.20248
1.17122
1.14955
1.13441
1.12302
1.11369
1.10549
1.09791
1.0907
1.08371
1.07686
1.07014
1.06351
1.05701
1.05064
1.04445
1.0385
1.03287
1.02759
1.02257
1.01779
1.01324
1.00893
1.00484
1.00096
0.997263
0.993737
0.990368
0.987144
0.984051
0.981068
0.97816
0.975256
0.972224
0.968891
0.965748
0.956549
0.941525
0.926742
0.911604
0.896187
0.88055
0.864716
0.848687
0.832458
0.816022
0.799367
0.782481
0.765353
0.747967
0.73031
0.712363
0.694111
0.675534
0.656615
0.637339
0.617691
0.597659
0.577228
0.55638
0.535098
0.51336
0.491146
0.468433
0.445205
0.421452
0.397181
0.372443
0.347367
0.322248
0.297741
0.275763
1.20418
1.17407
1.15239
1.13672
1.12473
1.11488
1.10627
1.09838
1.09094
1.08377
1.07681
1.07001
1.06334
1.05681
1.05044
1.04427
1.03835
1.03274
1.02745
1.02242
1.01764
1.01309
1.00879
1.0047
1.00081
0.997117
0.99359
0.990218
0.986984
0.983871
0.980851
0.977879
0.97488
0.97172
0.96819
0.963896
0.954631
0.940658
0.92601
0.910944
0.895577
0.879969
0.864147
0.848119
0.831881
0.815427
0.798748
0.781835
0.764674
0.747252
0.729556
0.711569
0.693276
0.674657
0.655698
0.636382
0.616695
0.596623
0.576151
0.555263
0.533939
0.51216
0.489907
0.467163
0.443914
0.420164
0.395941
0.371333
0.346547
0.322039
0.298829
0.279246
1.20651
1.1767
1.15512
1.13905
1.12653
1.11619
1.10716
1.09895
1.09126
1.0839
1.07679
1.06988
1.06314
1.05656
1.05017
1.04399
1.03806
1.03243
1.02711
1.02206
1.01726
1.0127
1.00837
1.00427
1.00037
0.996656
0.993114
0.989725
0.98647
0.983325
0.980257
0.977214
0.974112
0.970814
0.967075
0.96217
0.952721
0.939069
0.924424
0.909337
0.893948
0.878317
0.86247
0.846415
0.830151
0.813673
0.796972
0.780037
0.762857
0.745419
0.727708
0.709708
0.691404
0.672778
0.653814
0.634498
0.614813
0.594746
0.574281
0.553401
0.532089
0.510325
0.488093
0.465376
0.442168
0.418476
0.394342
0.369875
0.345317
0.321185
0.298618
0.280419
1.20388
1.17756
1.15646
1.14027
1.12745
1.11681
1.10753
1.09913
1.09129
1.08385
1.07668
1.06974
1.063
1.05645
1.05009
1.04396
1.03809
1.0325
1.02722
1.0222
1.01743
1.0129
1.00861
1.00454
1.00067
0.996987
0.993473
0.990107
0.986868
0.983728
0.980647
0.977569
0.974406
0.971026
0.967207
0.962249
0.952593
0.938758
0.924022
0.908886
0.893461
0.877795
0.861912
0.845821
0.829522
0.81301
0.796277
0.779312
0.762103
0.744636
0.726898
0.708873
0.690545
0.671896
0.652912
0.633577
0.613875
0.593791
0.57331
0.552415
0.531088
0.509311
0.487068
0.464344
0.441134
0.417447
0.393329
0.368887
0.344356
0.320211
0.29737
0.277375
1.20579
1.17946
1.15882
1.1426
1.12956
1.11866
1.10915
1.10056
1.09258
1.08502
1.07778
1.0708
1.06403
1.05747
1.05112
1.04501
1.03916
1.03358
1.0283
1.02328
1.01852
1.014
1.00971
1.00564
1.00177
0.998093
0.994578
0.991207
0.987956
0.984794
0.981677
0.978543
0.975307
0.971847
0.968027
0.963587
0.953641
0.939045
0.924101
0.908865
0.893362
0.877625
0.861675
0.845519
0.829159
0.81259
0.795803
0.778787
0.761532
0.744023
0.726245
0.708184
0.689823
0.671146
0.652138
0.632782
0.613063
0.592966
0.572475
0.551573
0.530243
0.508467
0.486228
0.463512
0.440312
0.416634
0.392514
0.368038
0.343392
0.318931
0.295287
0.273509
1.20335
1.17931
1.1591
1.14283
1.12955
1.11836
1.10857
1.09974
1.09157
1.08387
1.07652
1.06945
1.06263
1.05604
1.04968
1.04356
1.03771
1.03213
1.02684
1.02182
1.01705
1.01253
1.00824
1.00418
1.00031
0.996639
0.993131
0.989768
0.986525
0.983367
0.980251
0.977115
0.973877
0.970432
0.966751
0.963855
0.954358
0.93851
0.923516
0.908317
0.892859
0.877166
0.861256
0.845137
0.82881
0.812271
0.79551
0.778519
0.761285
0.743796
0.726037
0.707993
0.689649
0.670988
0.651996
0.632657
0.612954
0.592872
0.572396
0.551508
0.530191
0.508428
0.4862
0.463494
0.440296
0.416607
0.392442
0.367854
0.342951
0.317928
0.293075
0.268728
1.204
1.18025
1.16043
1.1442
1.13076
1.11933
1.10932
1.10029
1.09195
1.08412
1.07668
1.06955
1.06268
1.05607
1.04971
1.0436
1.03775
1.03219
1.02691
1.0219
1.01714
1.01264
1.00836
1.00431
1.00047
0.996814
0.993327
0.989986
0.986763
0.983623
0.980521
0.977399
0.974176
0.970756
0.967034
0.962799
0.953627
0.93923
0.924352
0.909175
0.893735
0.878058
0.862161
0.846052
0.829729
0.81319
0.796426
0.779428
0.762184
0.744683
0.726911
0.708853
0.690494
0.671819
0.652812
0.633458
0.613741
0.593646
0.573157
0.552257
0.530928
0.509154
0.486915
0.464194
0.440974
0.417243
0.392995
0.368234
0.342981
0.317262
0.291052
0.264082
1.20547
1.18155
1.16209
1.14589
1.13229
1.12063
1.11037
1.10111
1.09258
1.08458
1.077
1.06976
1.06281
1.05614
1.04973
1.04358
1.03771
1.03212
1.02681
1.02178
1.017
1.01248
1.00819
1.00414
1.00028
0.996627
0.99314
0.989801
0.98658
0.983443
0.980341
0.977216
0.973991
0.970565
0.966761
0.961885
0.952368
0.938397
0.923509
0.908281
0.892803
0.877102
0.861189
0.845069
0.828742
0.812203
0.795444
0.778455
0.761225
0.743742
0.725991
0.707959
0.689631
0.670991
0.652024
0.632714
0.613046
0.593005
0.572574
0.551737
0.530477
0.508775
0.486613
0.463969
0.440822
0.417144
0.392906
0.368064
0.342551
0.316241
0.288918
0.260518
1.20218
1.18116
1.16237
1.14643
1.13288
1.12116
1.11082
1.10148
1.09288
1.08484
1.07723
1.06999
1.06305
1.0564
1.05003
1.04393
1.0381
1.03256
1.02729
1.0223
1.01757
1.01309
1.00885
1.00483
1.00103
0.997416
0.993976
0.990683
0.987508
0.984414
0.981354
0.97827
0.975087
0.971711
0.967977
0.963152
0.953285
0.939082
0.924073
0.908775
0.893253
0.877521
0.861586
0.845451
0.829114
0.812569
0.795808
0.778821
0.761597
0.744122
0.726383
0.708365
0.690054
0.671433
0.652488
0.633203
0.613562
0.59355
0.573151
0.552348
0.531124
0.509462
0.487339
0.464734
0.441617
0.417951
0.393681
0.36872
0.342923
0.316026
0.287521
0.25633
1.20376
1.18263
1.16442
1.14874
1.13526
1.12352
1.1131
1.10367
1.095
1.08689
1.07924
1.07197
1.06501
1.05836
1.05198
1.04588
1.04006
1.03453
1.02927
1.02428
1.01955
1.01508
1.01084
1.00683
1.00303
0.999425
0.995992
0.992706
0.989538
0.98645
0.983396
0.980319
0.977149
0.973808
0.970238
0.966206
0.955839
0.940661
0.925373
0.909941
0.894321
0.878508
0.862504
0.84631
0.829922
0.813333
0.796535
0.779518
0.76227
0.744777
0.727026
0.709002
0.690689
0.672074
0.653139
0.63387
0.614251
0.594267
0.573901
0.553137
0.531958
0.510346
0.48828
0.465734
0.442675
0.419055
0.394802
0.369794
0.34383
0.316559
0.287375
0.255325
1.19986
1.18103
1.16329
1.14781
1.13435
1.12254
1.11202
1.10247
1.09368
1.08548
1.07775
1.07041
1.06341
1.05672
1.05032
1.04421
1.03839
1.03285
1.02759
1.0226
1.01788
1.01341
1.00919
1.00519
1.00142
0.997837
0.994436
0.991188
0.988065
0.98503
0.982039
0.979038
0.975966
0.972761
0.969504
0.967643
0.958192
0.941396
0.926014
0.9106
0.895013
0.879239
0.86328
0.847133
0.830793
0.814255
0.797508
0.780542
0.763346
0.745905
0.728206
0.710234
0.691975
0.673413
0.654532
0.635318
0.615754
0.595825
0.575516
0.554811
0.533693
0.512143
0.490142
0.467663
0.444671
0.421112
0.396903
0.371904
0.345884
0.318448
0.288933
0.25629
1.20029
1.1809
1.16357
1.14833
1.13495
1.12313
1.11254
1.10292
1.09405
1.08578
1.078
1.07062
1.06361
1.05691
1.05052
1.04442
1.03861
1.0331
1.02786
1.0229
1.01821
1.01377
1.00958
1.00563
1.0019
0.998368
0.995021
0.991833
0.988777
0.985816
0.98291
0.980009
0.977054
0.973985
0.970753
0.967203
0.958546
0.943779
0.928579
0.913181
0.897598
0.881833
0.865884
0.849749
0.833423
0.816897
0.800163
0.783209
0.766023
0.748593
0.730904
0.712942
0.694693
0.676142
0.657272
0.63807
0.618519
0.598605
0.578312
0.557626
0.536529
0.515006
0.493037
0.470597
0.447651
0.424148
0.400003
0.375073
0.349124
0.321773
0.292385
0.259887
1.20132
1.18156
1.16455
1.14948
1.13614
1.12426
1.11356
1.10382
1.09482
1.08643
1.07854
1.07108
1.06398
1.05722
1.05078
1.04464
1.03879
1.03324
1.02798
1.023
1.0183
1.01385
1.00966
1.00571
1.00199
0.998479
0.995157
0.992004
0.98899
0.986081
0.983237
0.98041
0.977543
0.974564
0.971308
0.966995
0.957775
0.943614
0.928458
0.913026
0.897418
0.881642
0.865695
0.849573
0.833269
0.816773
0.800076
0.783166
0.766031
0.748659
0.731034
0.713142
0.694969
0.6765
0.657719
0.638611
0.61916
0.599353
0.579174
0.558608
0.53764
0.516256
0.494437
0.472162
0.449402
0.42611
0.402212
0.377582
0.352011
0.325173
0.296621
0.26609
1.19811
1.18066
1.1643
1.1496
1.13647
1.12469
1.11405
1.10432
1.09533
1.08695
1.07907
1.07162
1.06455
1.05782
1.05142
1.04532
1.03952
1.03402
1.02881
1.02388
1.01922
1.01483
1.0107
1.00681
1.00315
0.999711
0.996465
0.993394
0.990469
0.98766
0.984925
0.98222
0.979492
0.976672
0.973595
0.969392
0.95965
0.945223
0.929955
0.914471
0.898838
0.883053
0.867111
0.851003
0.834721
0.818255
0.801593
0.784725
0.767638
0.750316
0.732747
0.714916
0.696806
0.678404
0.659694
0.640659
0.621285
0.601558
0.581462
0.560982
0.540107
0.51882
0.497109
0.474957
0.452342
0.429229
0.405564
0.381249
0.356119
0.329906
0.302218
0.272525
1.19956
1.18237
1.16653
1.15218
1.13925
1.12758
1.11697
1.10725
1.09826
1.08986
1.08196
1.0745
1.06742
1.06068
1.05427
1.04817
1.04238
1.03687
1.03166
1.02673
1.02208
1.01769
1.01356
1.00968
1.00604
1.00261
0.999389
0.996348
0.993461
0.990699
0.988024
0.985393
0.982758
0.980072
0.977311
0.974193
0.963703
0.948052
0.93245
0.916827
0.901101
0.885244
0.869245
0.853092
0.836777
0.820287
0.803613
0.786741
0.769658
0.752349
0.734801
0.716998
0.698925
0.680566
0.661906
0.642929
0.62362
0.603963
0.583945
0.563552
0.54277
0.521589
0.499998
0.477985
0.455539
0.432644
0.409271
0.385366
0.360823
0.335448
0.308967
0.281663
1.19423
1.17972
1.16429
1.1502
1.13743
1.12583
1.11525
1.10551
1.09648
1.08804
1.08011
1.07261
1.06551
1.05875
1.05233
1.04622
1.04043
1.03493
1.02972
1.0248
1.02017
1.0158
1.0117
1.00786
1.00425
1.00088
0.997722
0.994756
0.991959
0.989304
0.986756
0.984278
0.981827
0.979379
0.977106
0.976926
0.967859
0.950113
0.934381
0.91878
0.903092
0.88728
0.871333
0.85524
0.838989
0.82257
0.80597
0.789175
0.772172
0.754946
0.737484
0.719768
0.701784
0.683517
0.66495
0.646067
0.626854
0.607295
0.587376
0.567085
0.546409
0.52534
0.503869
0.481995
0.459716
0.437038
0.413965
0.390499
0.366615
0.34219
0.316769
0.288865
1.19484
1.17877
1.16374
1.14997
1.1374
1.12593
1.11541
1.1057
1.09669
1.08826
1.08033
1.07284
1.06575
1.05901
1.05262
1.04654
1.04078
1.03532
1.03016
1.02528
1.0207
1.01639
1.01235
1.00858
1.00505
1.00176
0.998697
0.995837
0.99316
0.990642
0.988251
0.985954
0.983711
0.981486
0.97926
0.9769
0.969142
0.95419
0.938758
0.923194
0.907514
0.891711
0.875777
0.859702
0.843473
0.827078
0.810504
0.793738
0.776765
0.759571
0.742141
0.72446
0.706512
0.688281
0.669751
0.650908
0.631736
0.612219
0.592345
0.5721
0.551474
0.53046
0.509056
0.487263
0.465096
0.442579
0.419758
0.3967
0.373495
0.350208
0.326587
0.300317
1.19538
1.17898
1.16424
1.15068
1.13824
1.12681
1.11628
1.10653
1.09746
1.08896
1.08097
1.07341
1.06626
1.05947
1.05303
1.04692
1.04112
1.03564
1.03045
1.02557
1.02098
1.01668
1.01265
1.00889
1.0054
1.00216
0.999147
0.996358
0.993769
0.991356
0.989091
0.986942
0.984868
0.982811
0.980584
0.977268
0.968703
0.95459
0.939295
0.923738
0.908063
0.892278
0.876377
0.860347
0.844174
0.827845
0.811348
0.794667
0.777788
0.760697
0.743377
0.725814
0.707992
0.689894
0.671504
0.652807
0.633788
0.614431
0.594721
0.574647
0.554199
0.533371
0.512161
0.49058
0.46865
0.446416
0.423958
0.401411
0.379003
0.357136
0.336686
0.320664
1.19273
1.17788
1.16373
1.15057
1.1384
1.12716
1.11677
1.10711
1.09811
1.08966
1.08171
1.0742
1.06709
1.06034
1.05395
1.04788
1.04213
1.0367
1.03157
1.02674
1.02221
1.01798
1.01402
1.01034
1.00694
1.00379
1.00089
0.99823
0.995781
0.993526
0.991441
0.989495
0.987652
0.985853
0.983905
0.980745
0.971473
0.957052
0.941662
0.926086
0.910422
0.894667
0.878809
0.862833
0.846724
0.830469
0.814053
0.79746
0.780676
0.763685
0.746471
0.729019
0.711312
0.693333
0.675066
0.656495
0.637603
0.618376
0.598797
0.578855
0.558539
0.537843
0.516769
0.495327
0.473549
0.451493
0.429265
0.407051
0.38518
0.364247
0.345412
0.330919
1.19394
1.18004
1.1664
1.15359
1.14167
1.1306
1.12032
1.11073
1.10176
1.09334
1.0854
1.07789
1.07077
1.06403
1.05762
1.05155
1.0458
1.04036
1.03522
1.0304
1.02587
1.02163
1.01768
1.01402
1.01064
1.00753
1.00467
1.00207
0.99969
0.997528
0.995557
0.99375
0.992079
0.990517
0.989056
0.987328
0.977048
0.961089
0.945294
0.92958
0.913841
0.898036
0.882144
0.866149
0.850035
0.833787
0.817388
0.800825
0.784081
0.76714
0.749986
0.732602
0.714973
0.69708
0.678908
0.660438
0.641654
0.622541
0.603081
0.583262
0.563072
0.542504
0.521557
0.500243
0.478593
0.456668
0.434583
0.41254
0.390896
0.370278
0.351817
0.337653
1.18704
1.17647
1.16314
1.15062
1.13893
1.12801
1.11783
1.10831
1.09938
1.09097
1.08304
1.07554
1.06843
1.06168
1.05529
1.04922
1.04348
1.03806
1.03295
1.02815
1.02365
1.01945
1.01556
1.01195
1.00863
1.0056
1.00284
1.00035
0.998109
0.996106
0.994322
0.992736
0.991328
0.990103
0.989342
0.991524
0.9832
0.964507
0.948523
0.93284
0.917151
0.901404
0.885579
0.86966
0.853629
0.837471
0.821171
0.804711
0.788076
0.771249
0.754214
0.736954
0.719451
0.701689
0.68365
0.665316
0.646671
0.627696
0.608375
0.588693
0.568636
0.548195
0.527366
0.506157
0.484592
0.462725
0.440658
0.418577
0.3968
0.375856
0.356558
0.339866
1.18812
1.17478
1.16186
1.14969
1.13826
1.12756
1.11753
1.10813
1.09929
1.09096
1.08309
1.07565
1.06859
1.0619
1.05556
1.04955
1.04387
1.03851
1.03347
1.02873
1.02431
1.0202
1.01639
1.01288
1.00967
1.00676
1.00413
1.00179
0.999719
0.997911
0.996351
0.995022
0.993905
0.992979
0.992253
0.99159
0.985124
0.970218
0.954706
0.939096
0.923427
0.907697
0.891893
0.876
0.860003
0.843884
0.827626
0.811214
0.794629
0.777857
0.760879
0.743679
0.72624
0.708544
0.690572
0.672309
0.653734
0.634831
0.615582
0.595968
0.575976
0.555591
0.534804
0.513615
0.492036
0.470101
0.447884
0.425519
0.403239
0.381423
0.360631
0.341409
1.18785
1.17459
1.16191
1.14997
1.1387
1.12811
1.11814
1.10876
1.09992
1.09157
1.08367
1.07619
1.0691
1.06238
1.05601
1.04998
1.04428
1.0389
1.03385
1.02911
1.0247
1.0206
1.01682
1.01335
1.0102
1.00735
1.00481
1.00258
1.00064
0.998984
0.997607
0.996493
0.99562
0.994931
0.994201
0.992324
0.984798
0.971019
0.955762
0.940211
0.924586
0.908913
0.893183
0.877378
0.861481
0.845473
0.829338
0.813059
0.796618
0.779998
0.763182
0.746153
0.728893
0.711384
0.693608
0.675547
0.657181
0.63849
0.619457
0.600061
0.580283
0.560106
0.539511
0.518488
0.49703
0.475144
0.452857
0.430229
0.407373
0.384491
0.36199
0.34103
1.18623
1.17338
1.16129
1.14974
1.13878
1.12841
1.11862
1.10937
1.10064
1.09237
1.08455
1.07713
1.0701
1.06343
1.05711
1.05113
1.04548
1.04016
1.03517
1.0305
1.02616
1.02214
1.01845
1.01508
1.01203
1.00932
1.00692
1.00485
1.0031
1.00166
1.00053
0.999695
0.999141
0.998816
0.998468
0.996788
0.988388
0.974238
0.958882
0.943338
0.927764
0.912166
0.896528
0.880828
0.865045
0.849163
0.833161
0.817022
0.800729
0.784264
0.767609
0.750746
0.733657
0.716324
0.698727
0.680847
0.662665
0.644159
0.625308
0.60609
0.586483
0.566462
0.546002
0.525077
0.503661
0.481726
0.459248
0.436199
0.41255
0.38826
0.363231
0.337022
1.18673
1.17596
1.16444
1.15325
1.14255
1.13237
1.12272
1.11358
1.10491
1.09669
1.08889
1.08148
1.07445
1.06778
1.06146
1.05547
1.04982
1.04449
1.03949
1.03482
1.03047
1.02646
1.02278
1.01943
1.01642
1.01375
1.01143
1.00944
1.00779
1.00649
1.00552
1.00489
1.00458
1.00461
1.00498
1.00515
0.995518
0.979425
0.963527
0.947827
0.932198
0.916582
0.900945
0.885263
0.869513
0.853675
0.837731
0.821662
0.805451
0.789078
0.772526
0.755778
0.738813
0.721613
0.704159
0.68643
0.668405
0.650063
0.63138
0.612331
0.592891
0.573027
0.552707
0.531891
0.51053
0.488563
0.465909
0.442455
0.418034
0.392382
0.365081
0.335644
1.17791
1.17141
1.16017
1.14928
1.13883
1.12885
1.11936
1.11033
1.10176
1.09361
1.08587
1.07851
1.07152
1.06489
1.0586
1.05264
1.04702
1.04173
1.03677
1.03214
1.02785
1.02389
1.02028
1.01701
1.0141
1.01153
1.00933
1.00749
1.00601
1.00491
1.00417
1.00382
1.00385
1.00433
1.00568
1.011
1.00394
0.984216
0.967989
0.952308
0.936745
0.921207
0.905658
0.890073
0.874429
0.858706
0.842884
0.826946
0.810873
0.794647
0.778249
0.76166
0.744862
0.727836
0.71056
0.693013
0.675176
0.657023
0.63853
0.619671
0.600414
0.580725
0.56056
0.539869
0.518581
0.496605
0.473813
0.450019
0.42494
0.398124
0.368779
0.33526
1.17993
1.16984
1.15896
1.14838
1.1382
1.12845
1.11914
1.11027
1.10182
1.09379
1.08614
1.07887
1.07196
1.0654
1.05918
1.0533
1.04775
1.04253
1.03764
1.03309
1.02888
1.02501
1.02149
1.01833
1.01552
1.01309
1.01103
1.00935
1.00807
1.00717
1.00669
1.00661
1.00697
1.00778
1.00913
1.01097
1.00592
0.990746
0.975092
0.959505
0.943972
0.928461
0.912943
0.897393
0.881791
0.866115
0.850348
0.834469
0.818461
0.802306
0.785984
0.769478
0.752767
0.735832
0.718653
0.701209
0.683476
0.665433
0.647052
0.628306
0.609161
0.58958
0.569514
0.548902
0.527662
0.505683
0.482805
0.458797
0.433319
0.405854
0.375606
0.341268
1.1788
1.1695
1.15871
1.14831
1.13828
1.12864
1.11941
1.11059
1.10218
1.09416
1.08652
1.07924
1.07233
1.06576
1.05953
1.05363
1.04808
1.04285
1.03797
1.03343
1.02923
1.02539
1.02191
1.01879
1.01605
1.01369
1.01172
1.01016
1.00901
1.00829
1.00799
1.00814
1.00875
1.00981
1.01113
1.01149
1.00524
0.991481
0.976186
0.960716
0.945276
0.929864
0.914457
0.899029
0.883559
0.868025
0.852408
0.836689
0.82085
0.804873
0.788738
0.772426
0.755918
0.739195
0.722235
0.705017
0.687518
0.669714
0.65158
0.633085
0.614195
0.594871
0.575062
0.554702
0.533702
0.511939
0.48924
0.465354
0.439918
0.412415
0.382177
0.348797
1.17865
1.16836
1.1581
1.14803
1.13824
1.1288
1.11973
1.11104
1.10274
1.0948
1.08723
1.08002
1.07316
1.06664
1.06046
1.05462
1.04911
1.04395
1.03912
1.03464
1.03052
1.02675
1.02336
1.02034
1.01772
1.01549
1.01368
1.01229
1.01134
1.01084
1.0108
1.01124
1.01218
1.0136
1.01529
1.01575
1.00845
0.994417
0.979126
0.963744
0.948418
0.933136
0.917867
0.902587
0.887271
0.8719
0.856453
0.84091
0.825254
0.809466
0.793526
0.777415
0.761114
0.744602
0.727858
0.71086
0.693585
0.676009
0.658105
0.639844
0.621191
0.602104
0.582534
0.562413
0.54165
0.520119
0.497643
0.473968
0.448732
0.421414
0.391226
0.356677
1.17806
1.1712
1.16144
1.15166
1.1421
1.13283
1.12389
1.11529
1.10705
1.09916
1.09162
1.08443
1.07757
1.07105
1.06487
1.05902
1.05351
1.04833
1.0435
1.03902
1.0349
1.03114
1.02777
1.02478
1.02219
1.02002
1.01828
1.01699
1.01615
1.0158
1.01594
1.0166
1.0178
1.01958
1.022
1.0245
1.01575
0.999631
0.983856
0.968401
0.953088
0.937841
0.92262
0.907399
0.892153
0.876862
0.861506
0.846067
0.830524
0.814859
0.799054
0.783088
0.766942
0.750595
0.734027
0.717214
0.700134
0.682763
0.665073
0.647035
0.628617
0.609777
0.590468
0.570625
0.550162
0.52896
0.506853
0.483604
0.458886
0.432241
0.403038
0.370452
1.16858
1.16609
1.15654
1.147
1.13767
1.1286
1.11984
1.11139
1.10327
1.09549
1.08804
1.08092
1.07414
1.06768
1.06156
1.05577
1.05031
1.04519
1.04042
1.036
1.03194
1.02825
1.02496
1.02206
1.01957
1.01752
1.01592
1.01478
1.01413
1.01398
1.01437
1.0153
1.01683
1.01904
1.02249
1.03096
1.02506
1.00472